/*--------------------------------*- C++ -*----------------------------------*\
  =========                 |
  \\      /  F ield         | OpenFOAM: The Open Source CFD Toolbox
   \\    /   O peration     | Website:  https://openfoam.org
    \\  /    A nd           | Version:  6
     \\/     M anipulation  |
\*---------------------------------------------------------------------------*/
FoamFile
{
    version     2.0;
    format      ascii;
    class       volVectorField;
    location    "3109";
    object      U;
}
// * * * * * * * * * * * * * * * * * * * * * * * * * * * * * * * * * * * * * //

dimensions      [0 1 -1 0 0 0 0];

internalField   nonuniform List<vector> 
31744
(
(1.4917662 0.00025297232 1.3158635e-24)
(1.4907525 0.00075943095 1.2411997e-27)
(1.4887287 0.0012656642 -1.3186687e-24)
(1.4856926 0.0017715203 2.8392538e-27)
(1.4816453 0.002276845 1.3353514e-24)
(1.4765883 0.0027814814 4.5711339e-27)
(1.4705231 0.0032852684 -1.3551072e-24)
(1.4634515 0.0037880403 6.1390654e-27)
(1.4553758 0.0042896257 6.9816254e-27)
(1.4462986 0.0047898466 7.8336725e-27)
(1.4362227 0.0052885176 8.6965344e-27)
(1.4251514 0.0057854449 9.5716146e-27)
(1.4130885 0.0062804251 1.046042e-26)
(1.4000379 0.0067732445 1.1364562e-26)
(1.3860044 0.0072636778 1.2285744e-26)
(1.3709928 0.007751487 1.3225806e-26)
(1.3550087 0.00823642 1.418671e-26)
(1.338058 0.0087182093 1.5170601e-26)
(1.3201474 0.0091965705 -1.6857135e-26)
(1.3012841 0.0096712004 1.7216879e-26)
(1.2814757 0.010141775 1.8284533e-26)
(1.2607307 0.010607948 1.7285242e-24)
(1.2390583 0.011069347 2.095356e-26)
(1.2164685 0.011525571 -1.7694808e-24)
(1.192972 0.011976189 2.2925673e-26)
(1.1685804 0.012420734 1.9070225e-24)
(1.1433064 0.012858698 2.6060779e-26)
(1.1171638 0.013289531 -1.9848462e-24)
(1.0901672 0.01371263 2.8355186e-26)
(1.0623329 0.014127337 0)
(1.0336783 0.014532928 0)
(1.0042223 0.014928606 1.5191039e-26)
(0.97398557 0.015313485 1.6736479e-26)
(0.94299058 0.015686603 -1.1338161e-24)
(0.91126175 0.016046838 1.855724e-26)
(0.87882577 0.016393015 2.5833927e-24)
(0.8457118 0.016723752 -2.3310508e-26)
(0.81195167 0.017037538 -2.5765324e-28)
(0.77758025 0.017332664 2.8757189e-24)
(0.74263578 0.01760717 -3.0796591e-24)
(0.70716018 0.01785883 -1.5581389e-24)
(0.67119949 0.018085163 -8.622019e-26)
(0.63480447 0.018283315 -6.5310768e-24)
(0.59803102 0.01844997 2.9076278e-26)
(0.56094108 0.018581397 5.388424e-24)
(0.52360355 0.018673186 2.0332087e-24)
(0.48609544 0.018720294 -8.3030306e-26)
(0.44850356 0.018716886 -8.0260264e-26)
(0.41092668 0.018656105 1.7126855e-25)
(0.37347808 0.018530053 5.1089569e-26)
(0.33628908 0.01832943 4.2449387e-24)
(0.2995133 0.018043445 1.6560305e-26)
(0.26333149 0.017659599 -2.4061308e-24)
(0.22795734 0.017163396 -2.0907752e-25)
(0.19364352 0.016538155 -2.8667271e-24)
(0.16068763 0.015764801 -5.7259697e-24)
(0.12943781 0.01482159 -4.1676522e-26)
(0.10029678 0.013683933 1.3154927e-23)
(0.073724436 0.012324053 -3.9042864e-25)
(0.050236946 0.010710464 -7.2238822e-24)
(0.03039267 0.0088066456 2.1764268e-24)
(0.014800994 0.0065673345 -8.0431589e-26)
(0.0042422848 0.0039283959 -2.7840649e-24)
(0.00059225312 0.0012306512 5.7895357e-26)
(0.00059222433 -0.0012305577 4.9655108e-25)
(0.0042419841 -0.0039281186 4.8082182e-24)
(0.014800004 -0.0065668946 -2.3256316e-24)
(0.030390688 -0.0088060503 2.3446416e-25)
(0.05023374 -0.010709749 2.2179774e-24)
(0.073719816 -0.012323254 5.8260497e-26)
(0.10029063 -0.013683081 1.9995914e-25)
(0.12943009 -0.014820712 5.6173036e-24)
(0.16067831 -0.015763921 1.2107775e-26)
(0.1936326 -0.016537282 -5.3588992e-24)
(0.22794486 -0.017162527 -2.5290317e-24)
(0.26331746 -0.017658762 8.2421286e-27)
(0.2994978 -0.018042642 2.5319263e-24)
(0.33627215 -0.018328668 -6.5428903e-27)
(0.37345977 -0.018529338 5.2136388e-26)
(0.4109071 -0.018655442 -4.5215055e-24)
(0.4484828 -0.018716252 1.9276552e-24)
(0.48607354 -0.018719728 7.7790989e-24)
(0.52358065 -0.018672663 -5.4953139e-24)
(0.56091728 -0.018580924 -3.4682294e-24)
(0.59800639 -0.018449549 3.5383326e-24)
(0.63477909 -0.018282944 -1.6145434e-24)
(0.67117348 -0.018084842 -4.7720424e-24)
(0.70713362 -0.017858557 1.6846858e-24)
(0.74260876 -0.017606944 5.9126611e-24)
(0.77755286 -0.017332485 4.1194973e-24)
(0.811924 -0.017037405 -1.4020515e-24)
(0.84568394 -0.016723662 -3.9576792e-24)
(0.87879781 -0.016392968 4.2654059e-26)
(0.91123376 -0.016046832 2.0217124e-26)
(0.94296264 -0.015686637 -2.4009808e-24)
(0.97395776 -0.015313557 1.2295334e-24)
(1.0041947 -0.014928715 2.1726423e-24)
(1.0336509 -0.014533072 -1.1248136e-24)
(1.0623059 -0.014127515 0)
(1.0901406 -0.01371284 -2.8348317e-26)
(1.1171376 -0.013289771 0)
(1.1432808 -0.012858967 -2.5516011e-26)
(1.1685553 -0.01242103 -2.4190857e-26)
(1.1929475 -0.011976511 1.812656e-24)
(1.2164447 -0.011525918 -2.2150467e-26)
(1.2390353 -0.011069716 -1.7693426e-24)
(1.2607084 -0.010608339 -1.9379809e-26)
(1.2814542 -0.010142186 1.6530559e-24)
(1.3012634 -0.0096716308 -1.7571228e-26)
(1.3201277 -0.0091970186 -1.5856635e-24)
(1.3380392 -0.0087186737 -1.5164848e-26)
(1.3549908 -0.0082368995 -1.4181e-26)
(1.3709759 -0.0077519805 -1.3220127e-26)
(1.3859885 -0.0072641841 -1.2280102e-26)
(1.400023 -0.0067737625 -1.1358961e-26)
(1.4130746 -0.0062809538 -1.0454862e-26)
(1.4251386 -0.0057859833 -9.566093e-27)
(1.436211 -0.0052890647 -8.6910447e-27)
(1.446288 -0.0047904015 -7.8282129e-27)
(1.4553664 -0.0042901875 -6.9761934e-27)
(1.4634432 -0.0037886082 -6.1336581e-27)
(1.470516 -0.0032858416 5.5211843e-27)
(1.4765824 -0.0027820591 -4.4720476e-27)
(1.4816407 -0.0022774264 -3.6506131e-27)
(1.4856892 -0.0017721046 1.3222849e-24)
(1.488727 -0.0012662507 -2.0631821e-27)
(1.490753 -0.00076001891 -1.3178957e-24)
(1.4917671 -0.00025356102 -4.099352e-28)
(1.4919546 0.00075711064 1.3413391e-24)
(1.4909431 0.0022766983 -3.5391145e-38)
(1.4889213 0.0037951034 -1.3185369e-24)
(1.4858889 0.0053121421 2.9308098e-38)
(1.4818468 0.0068275209 1.3300261e-24)
(1.4767962 0.0083408071 2.7323197e-24)
(1.4707388 0.0098515299 -1.3479126e-24)
(1.4636764 0.011359199 -2.7755705e-24)
(1.4556112 0.012863303 -3.0933247e-38)
(1.4465457 0.014363309 2.0388675e-38)
(1.4364829 0.015858662 -4.3320887e-38)
(1.4254261 0.017348781 8.9595023e-39)
(1.4133789 0.018833054 -4.1012828e-39)
(1.4003455 0.020310841 -3.3262231e-38)
(1.3863304 0.021781465 4.8840862e-38)
(1.3713386 0.023244212 5.616867e-38)
(1.3553756 0.024698325 -6.3619773e-39)
(1.3384475 0.026143001 3.2044261e-24)
(1.3205609 0.027577386 -7.3437734e-38)
(1.3017228 0.02900057 -3.3362748e-24)
(1.2819412 0.030411581 4.3211412e-38)
(1.2612244 0.031809377 1.706899e-24)
(1.2395817 0.033192844 -5.4833023e-38)
(1.2170229 0.034560779 -1.7887817e-24)
(1.193559 0.035911885 4.2431376e-38)
(1.1692015 0.037244763 1.880228e-24)
(1.1439632 0.038557892 1.9297735e-24)
(1.1178576 0.039849618 -1.9820136e-24)
(1.0908997 0.041118136 -4.7105911e-39)
(1.0631057 0.042361471 2.0950654e-24)
(1.0344929 0.043577455 -2.1561414e-24)
(1.0050803 0.044763693 -1.2149147e-24)
(0.97488856 0.045917565 2.274981e-24)
(0.94394013 0.047036094 1.1258377e-24)
(0.91225943 0.048116059 -2.6944074e-24)
(0.87987313 0.049153836 -1.0842492e-28)
(0.84681031 0.050145352 2.7741353e-24)
(0.81310279 0.051086039 1.2623854e-24)
(0.77878538 0.051970746 1.4066552e-24)
(0.7438962 0.052793674 -1.3333011e-24)
(0.70847705 0.053548206 3.9684421e-26)
(0.67257381 0.054226872 -2.9997829e-24)
(0.63623697 0.054821104 -3.3040577e-24)
(0.59952219 0.055321065 -4.30093e-25)
(0.56249098 0.055715507 1.754202e-24)
(0.52521174 0.055991383 5.6267053e-24)
(0.48776076 0.056133583 -3.6034756e-24)
(0.45022391 0.056124601 -2.1648911e-24)
(0.41269873 0.055944113 1.9623916e-24)
(0.37529691 0.055568339 5.4919928e-27)
(0.33814772 0.054969576 1.9932274e-24)
(0.30140212 0.054115567 2.7544869e-24)
(0.26523773 0.052968808 -1.7797869e-25)
(0.22986423 0.051485823 -2.4542185e-24)
(0.19552965 0.049616394 2.9757936e-24)
(0.16252621 0.047302776 5.8561312e-24)
(0.13119601 0.044478897 -3.3559734e-24)
(0.10193543 0.041069285 -6.4867267e-24)
(0.07519832 0.036987788 5.7105152e-25)
(0.051496279 0.032134967 5.6112651e-25)
(0.031386808 0.026393099 7.37231e-24)
(0.015485551 0.019614952 -2.3311661e-24)
(0.0046016274 0.011601841 -1.9152443e-23)
(0.00072296538 0.0035938118 -6.5723273e-25)
(0.00072292583 -0.0035935498 8.604734e-25)
(0.0046012969 -0.011601032 9.2535079e-24)
(0.015484499 -0.019613653 8.5391037e-24)
(0.031384762 -0.026391416 4.2098158e-24)
(0.051492984 -0.03213295 -7.3945334e-24)
(0.075193601 -0.03698557 -3.5132276e-24)
(0.1019292 -0.04106693 -3.0111877e-24)
(0.13118822 -0.044476467 -7.2786533e-25)
(0.16251682 -0.047300321 2.4782676e-24)
(0.19551868 -0.049613937 3.2103338e-24)
(0.22985169 -0.051483406 8.9069713e-27)
(0.26522366 -0.05296646 2.7370075e-24)
(0.30138659 -0.054113314 -1.6652406e-26)
(0.33813075 -0.054967436 -4.6034983e-24)
(0.37527859 -0.055566301 -4.2540079e-24)
(0.41267914 -0.055942196 1.5048708e-25)
(0.45020314 -0.056122837 4.164525e-24)
(0.48773886 -0.05613194 1.2203657e-25)
(0.52518884 -0.055989886 -4.8498253e-25)
(0.5624672 -0.055714154 1.7688298e-25)
(0.59949758 -0.055319858 3.4641729e-24)
(0.63621162 -0.054820043 3.6166613e-25)
(0.67254783 -0.054225955 -2.8781065e-24)
(0.70845052 -0.05354743 2.4610967e-25)
(0.74386921 -0.052793038 -1.6260368e-24)
(0.77875803 -0.051970245 -4.0883461e-26)
(0.81307517 -0.051085671 1.1854018e-24)
(0.8467825 -0.050145114 2.7739595e-24)
(0.87984521 -0.049153723 1.186918e-24)
(0.91223149 -0.048116067 -3.7030321e-24)
(0.94391225 -0.047036219 -1.2819344e-24)
(0.9748608 -0.045917802 -1.0829083e-24)
(1.0050527 -0.044764038 -5.1743098e-26)
(1.0344656 -0.043577903 2.1559605e-24)
(1.0630787 -0.042362018 -2.0948823e-24)
(1.0908732 -0.041118778 3.5161839e-39)
(1.1178315 -0.039850349 -5.8401081e-39)
(1.1439376 -0.038558707 -1.9295842e-24)
(1.1691765 -0.037245659 -4.1542787e-38)
(1.1935346 -0.035912858 1.8330806e-24)
(1.2169992 -0.034561822 -8.9255953e-38)
(1.2395587 -0.033193955 -1.7465082e-24)
(1.2612022 -0.031810552 -5.3562877e-38)
(1.2819198 -0.030412815 1.6691658e-24)
(1.3017023 -0.02900186 3.3359303e-24)
(1.3205412 -0.027578729 -1.6004685e-24)
(1.3384287 -0.026144392 -3.2041027e-24)
(1.3553578 -0.024699762 4.2998493e-39)
(1.3713217 -0.023245691 4.5480903e-38)
(1.3863145 -0.021782983 -2.8975595e-38)
(1.4003306 -0.020312394 4.8550485e-38)
(1.4133651 -0.018834641 5.7895499e-39)
(1.4254133 -0.017350399 3.7445396e-38)
(1.4364713 -0.01586031 -2.1210054e-38)
(1.4465352 -0.014364985 -4.5811211e-39)
(1.4556018 -0.012865006 2.9783203e-38)
(1.4636682 -0.01136093 2.7754099e-24)
(1.4707317 -0.0098532934 3.138959e-38)
(1.4767903 -0.0083426114 -2.7321994e-24)
(1.4818421 -0.0068293853 5.9893518e-38)
(1.4858854 -0.0053141052 1.3235203e-24)
(1.4889191 -0.0037972551 3.2802184e-38)
(1.4909424 -0.002279336 -1.3431372e-24)
(1.4919546 -0.00076097271 -5.0655614e-38)
(1.4923284 0.0012625107 1.3089518e-24)
(1.4913199 0.0037918548 -6.2289186e-27)
(1.4893031 0.0063199289 -1.3255679e-24)
(1.4862784 0.0088460305 -1.4182797e-26)
(1.4822467 0.011369442 1.3085024e-24)
(1.4772092 0.013889388 -2.2356549e-26)
(1.4711674 0.016405069 -1.3169944e-24)
(1.4641233 0.018915661 -3.0653375e-26)
(1.456079 0.021420307 -3.4860022e-26)
(1.447037 0.023918119 -3.9113724e-26)
(1.4370004 0.026408167 -4.3421088e-26)
(1.4259724 0.028889482 -4.7789115e-26)
(1.4139566 0.031361045 -5.2225249e-26)
(1.4009574 0.033821785 -5.6737408e-26)
(1.3869791 0.036270573 -6.1334073e-26)
(1.3720269 0.038706217 -6.6024365e-26)
(1.3561062 0.041127453 -7.0818102e-26)
(1.3392231 0.043532942 -7.5725912e-26)
(1.3213843 0.045921257 8.4140037e-26)
(1.3025969 0.048290882 -8.5930806e-26)
(1.2828686 0.050640192 -9.1254027e-26)
(1.2622081 0.052967454 1.6056833e-24)
(1.2406246 0.055270803 -1.0241648e-25)
(1.2181279 0.057548238 -1.8922765e-24)
(1.194729 0.059797597 -1.1438316e-25)
(1.1704396 0.062016545 1.7543258e-24)
(1.1452723 0.06420255 -1.2731433e-25)
(1.1192409 0.066352858 -1.9763606e-24)
(1.0923603 0.068464463 -1.4142002e-25)
(1.0646466 0.070534077 0)
(1.0361172 0.072558088 3.2693854e-24)
(1.0067913 0.07453254 2.1409523e-24)
(0.97668931 0.076452998 -3.2829917e-24)
(0.94583377 0.07831463 -2.4427276e-24)
(0.91424909 0.08011203 9.1845216e-26)
(0.88196184 0.081839157 -2.1253016e-25)
(0.84900105 0.083489271 2.8125574e-24)
(0.8153984 0.085054794 1.1863247e-25)
(0.78118856 0.086527183 -2.6344535e-24)
(0.74640947 0.087896831 1.216504e-25)
(0.71110259 0.08915278 1.3560522e-25)
(0.67531348 0.090282651 -1.4843742e-25)
(0.63909215 0.091272275 -3.0236574e-25)
(0.60249359 0.092105366 -3.466086e-24)
(0.56557858 0.092763309 -3.5984616e-25)
(0.52841442 0.093224588 1.7221178e-24)
(0.49107609 0.093464236 1.3891379e-24)
(0.45364773 0.093453379 1.6133631e-24)
(0.41622459 0.09315835 -2.3859196e-24)
(0.37891544 0.092539923 4.6092614e-24)
(0.34184592 0.091552341 -4.3610566e-25)
(0.30516241 0.090142289 -2.7091507e-24)
(0.26903674 0.088247656 5.238737e-25)
(0.23367175 0.085796261 -5.5896787e-24)
(0.19930703 0.082704514 -3.737735e-26)
(0.16622513 0.07887582 1.1701733e-24)
(0.13475706 0.07419892 8.3773692e-25)
(0.10528722 0.068545793 3.2203174e-24)
(0.078257306 0.06176869 -6.3850765e-24)
(0.054168345 0.053695449 7.3255517e-24)
(0.03357153 0.0441213 7.5847861e-24)
(0.01708294 0.032793257 -7.2932849e-24)
(0.0055436846 0.019387334 -1.1088153e-23)
(0.0010110587 0.0060273376 -1.5783044e-24)
(0.0010110017 -0.0060269171 1.4067282e-24)
(0.0055433035 -0.019386023 1.2016897e-23)
(0.017081793 -0.032791112 2.6373906e-24)
(0.033569358 -0.044118534 3.757805e-24)
(0.054164927 -0.053692197 -6.1211523e-25)
(0.078252441 -0.061765072 -3.3918049e-24)
(0.10528088 -0.068541973 -5.4719956e-24)
(0.13474917 -0.074194972 4.2088396e-25)
(0.16621563 -0.078871786 7.4829165e-24)
(0.19929595 -0.082700495 -1.4216354e-25)
(0.23365911 -0.085792309 -2.7696332e-24)
(0.26902259 -0.0882438 3.908176e-25)
(0.3051468 -0.090138598 -8.3990834e-25)
(0.3418289 -0.09154882 0)
(0.37889707 -0.092536576 2.2028114e-24)
(0.41620495 -0.093155209 2.0766687e-25)
(0.45362695 -0.093450458 1.6534939e-24)
(0.49105423 -0.09346155 -1.5618621e-24)
(0.52839156 -0.093222122 -1.7052489e-24)
(0.56555482 -0.092761087 1.6601216e-24)
(0.602469 -0.092103378 3.3730808e-25)
(0.63906683 -0.091270539 -4.4818541e-25)
(0.67528756 -0.090281145 -1.6145338e-24)
(0.71107613 -0.089151507 1.2430309e-25)
(0.74638256 -0.087895788 3.1080062e-24)
(0.7811613 -0.086526365 -1.1630184e-25)
(0.81537086 -0.085054196 -1.5119503e-24)
(0.84897333 -0.083488887 -2.4801845e-24)
(0.88193402 -0.08183898 -1.411179e-24)
(0.91422125 -0.080112053 1.4654421e-24)
(0.94580598 -0.078314847 1.7867624e-25)
(0.97666166 -0.076453401 1.0926434e-24)
(1.0067638 -0.074533122 -1.3482059e-26)
(1.0360901 -0.072558841 0)
(1.0646197 -0.070534993 0)
(1.0923339 -0.068465536 1.4138531e-25)
(1.1192149 -0.066354079 0)
(1.1452469 -0.064203911 1.2728474e-25)
(1.1704147 -0.06201804 1.2068525e-25)
(1.1947048 -0.059799218 1.9424514e-24)
(1.2181043 -0.057549977 1.0825787e-25)
(1.2406017 -0.055272655 -1.6394976e-24)
(1.262186 -0.05296941 9.6712859e-26)
(1.2828473 -0.050642248 1.7560581e-24)
(1.3025764 -0.04829303 8.590066e-26)
(1.3213647 -0.045923492 -1.6804905e-24)
(1.3392045 -0.043535257 7.5696467e-26)
(1.3560884 -0.041129843 7.0788967e-26)
(1.3720101 -0.038708677 6.5995516e-26)
(1.3869633 -0.036273097 6.13055e-26)
(1.4009426 -0.033824369 5.6709091e-26)
(1.4139429 -0.031363685 5.2197182e-26)
(1.4259597 -0.028892175 4.7761302e-26)
(1.4369888 -0.026410909 4.3393539e-26)
(1.4470265 -0.023920908 3.9086488e-26)
(1.4560696 -0.021423143 3.4833182e-26)
(1.464115 -0.018918543 3.0627041e-26)
(1.4711603 -0.016408003 -2.756953e-26)
(1.4772032 -0.013892381 2.2331348e-26)
(1.4822419 -0.011372511 1.8230158e-26)
(1.4862748 -0.008849205 1.334413e-24)
(1.4893007 -0.0063232543 1.0086398e-26)
(1.4913187 -0.0037954426 -1.3063117e-24)
(1.4923281 -0.0012665838 1.885785e-27)
(1.4928818 0.0017658589 1.3057633e-24)
(1.4918773 0.0053020456 -1.1683913e-37)
(1.4898683 0.0088366306 -1.310583e-24)
(1.4868553 0.012368548 0)
(1.4828392 0.015896724 1.3218524e-24)
(1.4778212 0.019420059 -5.9846654e-38)
(1.4718029 0.022937424 -1.3396158e-24)
(1.4647861 0.026447658 0)
(1.4567731 0.029949561 0)
(1.4477664 0.033441883 0)
(1.4377689 0.036923321 0)
(1.4267841 0.040392515 0)
(1.4148155 0.043848034 0)
(1.4018673 0.047288377 0)
(1.3879442 0.050711959 0)
(1.3730512 0.054117106 0)
(1.3571938 0.057502048 0)
(1.3403782 0.060864902 0)
(1.3226109 0.064203671 0)
(1.3038991 0.067516223 0)
(1.2842509 0.070800285 0)
(1.2636746 0.074053424 1.6957365e-24)
(1.2421795 0.077273028 -7.5177507e-38)
(1.2197758 0.080456292 -1.7768151e-24)
(1.1964742 0.083600191 0)
(1.1722866 0.086701453 1.867293e-24)
(1.1472256 0.089756537 3.8325594e-30)
(1.121305 0.092761591 -1.8702654e-24)
(1.0945399 0.095712412 0)
(1.0669462 0.098604406 0)
(1.0385417 0.10143254 0)
(1.0093452 0.10419126 -1.8522817e-24)
(0.97937742 0.10687442 2.5324122e-25)
(0.94866075 0.10947526 -2.4530737e-25)
(0.91721952 0.11198628 -1.4067031e-25)
(0.88508027 0.11439901 -1.041574e-25)
(0.85227191 0.11670413 -1.3412494e-24)
(0.81882594 0.11889107 1.8685945e-24)
(0.78477681 0.12094798 1.2594014e-24)
(0.75016204 0.1228615 1.3502362e-24)
(0.71502277 0.12461646 3.2841406e-24)
(0.67940401 0.12619566 1.2942196e-25)
(0.64335501 0.12757948 -2.8849096e-24)
(0.60692989 0.12874539 4.47372e-25)
(0.57018822 0.12966762 -4.958197e-25)
(0.53319579 0.13031641 5.3966316e-24)
(0.49602565 0.13065736 -1.2475605e-26)
(0.45875945 0.13065051 -2.0485241e-24)
(0.42148919 0.13024935 -3.9846657e-24)
(0.38431967 0.1293998 -1.6873244e-24)
(0.34737142 0.12803869 8.1312279e-24)
(0.31078442 0.12609232 -2.8027496e-24)
(0.27472264 0.12347475 1.2747129e-24)
(0.2393792 0.12008584 2.2221938e-25)
(0.20498224 0.11580925 -8.6608581e-24)
(0.17180065 0.11050996 2.8752746e-25)
(0.14014985 0.10403146 6.5602176e-24)
(0.11039695 0.096192286 -2.540553e-24)
(0.082965501 0.086781245 -6.8376947e-25)
(0.058338942 0.075550841 2.0674521e-24)
(0.03705338 0.062206782 -4.2710594e-25)
(0.019712356 0.046391866 4.1508104e-24)
(0.0071914712 0.027675103 5.8567757e-24)
(0.0015045879 0.0087856244 -1.4636354e-25)
(0.0015044974 -0.0087850128 -5.5379871e-25)
(0.007190984 -0.027673255 -5.6545072e-24)
(0.019711061 -0.046388869 1.2016967e-23)
(0.037051013 -0.062202921 3.425874e-24)
(0.05833532 -0.075546336 -6.0815827e-24)
(0.082960447 -0.086776255 2.6228076e-25)
(0.11039039 -0.096186973 -6.4174695e-27)
(0.14014176 -0.10402599 -6.7333663e-24)
(0.17179097 -0.11050439 -2.8449236e-24)
(0.20497097 -0.11580368 4.7551124e-24)
(0.23936643 -0.12008037 7.5884756e-24)
(0.27470835 -0.12346941 -8.5043011e-25)
(0.31076869 -0.12608718 -4.1253401e-24)
(0.34735432 -0.1280338 2.0796848e-24)
(0.38430126 -0.12939517 -2.182529e-24)
(0.42146954 -0.130245 -2.7316012e-24)
(0.45873864 -0.13064645 5.8582936e-24)
(0.49600378 -0.13065363 1.3743116e-24)
(0.53317296 -0.130313 -3.2839491e-24)
(0.5701645 -0.12966454 3.4217939e-24)
(0.60690535 -0.12874265 -2.0278474e-24)
(0.64332976 -0.12757706 -3.4057661e-24)
(0.67937817 -0.12619358 1.6090149e-24)
(0.7149964 -0.1246147 1.5373537e-24)
(0.75013523 -0.12286006 -1.5890003e-24)
(0.78474965 -0.12094686 -3.0417803e-24)
(0.81879853 -0.11889025 1.56457e-24)
(0.85224432 -0.1167036 2.5257933e-24)
(0.88505259 -0.11439878 4.1794849e-24)
(0.91719182 -0.11198632 -1.2182077e-24)
(0.94863311 -0.10947557 -3.5238209e-24)
(0.97934992 -0.10687499 -1.0874443e-24)
(1.0093179 -0.10419208 6.7657577e-30)
(1.0385147 -0.1014336 1.1146024e-24)
(1.0669196 -0.098605693 0)
(1.0945136 -0.095713917 0)
(1.1212792 -0.092763302 -9.7621511e-26)
(1.1472003 -0.089758443 0)
(1.1722618 -0.086703546 0)
(1.1964501 -0.083602458 1.8206533e-24)
(1.2197524 -0.080458725 6.4032676e-41)
(1.2421568 -0.077275617 -1.7349632e-24)
(1.2636526 -0.074056159 0)
(1.2842297 -0.070803158 1.6583536e-24)
(1.3038788 -0.067519225 7.3841887e-38)
(1.3225914 -0.064206793 -1.5902643e-24)
(1.3403596 -0.060868136 0)
(1.3571762 -0.057505386 0)
(1.3730345 -0.054120542 0)
(1.3879286 -0.050715484 0)
(1.4018527 -0.047291986 0)
(1.4148018 -0.043851721 0)
(1.4267715 -0.040396274 0)
(1.4377574 -0.036927149 0)
(1.4477559 -0.033445775 0)
(1.4567638 -0.029953516 0)
(1.4647779 -0.026451676 0)
(1.4717958 -0.022941506 0)
(1.4778153 -0.019424212 0)
(1.4828344 -0.015900959 0)
(1.4868517 -0.012372881 1.3153765e-24)
(1.4898658 -0.0088410837 1.1772984e-37)
(1.491876 -0.0053066487 -1.3073613e-24)
(1.4928814 -0.001770649 0)
(1.4936062 0.0022667327 1.3029373e-24)
(1.492607 0.0068053633 1.0902699e-26)
(1.4906083 0.011341964 -1.2859558e-24)
(1.4876109 0.015875153 2.5445178e-26)
(1.4836155 0.020403536 1.3480848e-24)
(1.4786235 0.024925694 4.0121731e-26)
(1.4726364 0.029440171 -1.3825155e-24)
(1.465656 0.033945469 5.500522e-26)
(1.4576846 0.03844004 6.2550362e-26)
(1.4487248 0.042922272 7.0178959e-26)
(1.4387794 0.047390487 7.7902655e-26)
(1.427852 0.051842927 8.5733786e-26)
(1.4159461 0.056277752 9.3685446e-26)
(1.4030659 0.060693022 1.0177161e-25)
(1.3892162 0.065086696 1.1000723e-25)
(1.3744019 0.069456615 1.1840838e-25)
(1.3586286 0.073800495 1.2699238e-25)
(1.3419025 0.07811591 1.3577795e-25)
(1.3242303 0.082400283 -1.5084632e-25)
(1.3056192 0.08665087 1.5403666e-25)
(1.2860772 0.09086474 1.6355583e-25)
(1.2656128 0.095038759 1.8602167e-24)
(1.2442353 0.099169565 1.8350482e-25)
(1.221955 0.10325355 -1.5732966e-24)
(1.1987826 0.10728682 2.048724e-25)
(1.1747301 0.11126517 2.0731807e-24)
(1.1498103 0.11518404 -7.6471074e-25)
(1.1240369 0.1190385 -1.7164691e-24)
(1.097425 0.12282316 1.0473579e-24)
(1.0699908 0.12653211 0)
(1.0417519 0.13015891 0)
(1.0127272 0.13369645 1.2373671e-26)
(0.98293745 0.13713689 1.9443272e-24)
(0.95240496 0.14047157 1.2112331e-24)
(0.92115405 0.14369084 -2.5492829e-24)
(0.88921111 0.14678402 -1.0996663e-24)
(0.8566049 0.14973914 -1.731802e-24)
(0.8233667 0.15254274 1.3758063e-24)
(0.78953061 0.15517976 1.4232522e-24)
(0.75513376 0.15763318 -3.06289e-24)
(0.72021674 0.15988376 -2.0523551e-26)
(0.6848238 0.16190965 -2.6631295e-25)
(0.64900329 0.16368594 -3.4235592e-24)
(0.61280819 0.16518419 3.3973046e-24)
(0.57629651 0.1663717 3.0723339e-24)
(0.5395321 0.16721086 -2.476819e-24)
(0.50258558 0.1676582 3.3071065e-24)
(0.46553539 0.16766327 1.0621222e-24)
(0.42846959 0.16716748 -3.3365062e-24)
(0.39148791 0.16610254 -5.1389082e-24)
(0.35470458 0.16438874 4.0286507e-24)
(0.31825181 0.16193318 -4.2081549e-25)
(0.28228367 0.15862721 -8.7397954e-25)
(0.24698143 0.15434412 5.7272404e-24)
(0.21255904 0.14893632 -3.8974732e-24)
(0.17926844 0.14223181 -6.7712887e-24)
(0.14740543 0.13403029 -1.2701773e-26)
(0.11731492 0.12409815 9.0492222e-24)
(0.089396227 0.11216188 1.5290909e-24)
(0.064107228 0.097899801 6.6145531e-24)
(0.041958029 0.080929946 2.0916232e-24)
(0.023525742 0.060798182 -7.5446676e-24)
(0.0097247659 0.03699701 -1.3208657e-24)
(0.0022996856 0.012242084 4.8002817e-25)
(0.0022995418 -0.012241238 2.4445403e-26)
(0.0097241176 -0.036994559 3.4997836e-24)
(0.023524228 -0.060794298 -9.343608e-26)
(0.041955394 -0.080924958 4.2503402e-24)
(0.064103309 -0.097894003 -5.1983941e-25)
(0.089390891 -0.11215551 -6.5371492e-24)
(0.11730809 -0.12409138 4.844776e-24)
(0.14739705 -0.13402331 -2.9759354e-26)
(0.1792585 -0.14222473 -4.2072059e-24)
(0.21254756 -0.14892926 1.6647104e-25)
(0.24696847 -0.15433717 7.5387284e-24)
(0.2822692 -0.1586204 1.1650977e-24)
(0.31823591 -0.16192662 -6.3421704e-24)
(0.35468736 -0.16438252 -3.1419992e-24)
(0.39146942 -0.16609664 -2.1558151e-24)
(0.42844987 -0.16716195 4.1707281e-25)
(0.46551454 -0.16765814 2.3612022e-24)
(0.50256371 -0.16765346 -6.8988717e-25)
(0.53950929 -0.16720653 2.4812543e-24)
(0.57627283 -0.16636779 -3.848852e-24)
(0.61278373 -0.1651807 -2.4026606e-24)
(0.64897814 -0.16368288 3.5307688e-24)
(0.68479806 -0.161907 1.2694603e-25)
(0.72019049 -0.15988153 -1.4700444e-25)
(0.75510709 -0.15763135 1.019805e-24)
(0.78950361 -0.15517834 1.1033246e-24)
(0.82333945 -0.15254171 -1.1647724e-24)
(0.85657749 -0.14973848 -1.347514e-24)
(0.88918361 -0.14678374 1.2893393e-24)
(0.92112655 -0.14369091 -6.0503471e-25)
(0.95237753 -0.14047198 -1.1000622e-24)
(0.98291016 -0.13713763 6.7707656e-26)
(1.0127001 -0.13369752 6.2289919e-26)
(1.0417251 -0.13016028 0)
(1.0699644 -0.12653377 0)
(1.097399 -0.1228251 -1.047263e-24)
(1.1240113 -0.1190407 8.3153703e-31)
(1.1497852 -0.1151865 7.6467714e-25)
(1.1747056 -0.11126786 -2.1611707e-25)
(1.1987587 -0.10728973 1.6059514e-24)
(1.2219318 -0.10325667 -1.9393727e-25)
(1.2442128 -0.099172889 -1.9092206e-24)
(1.265591 -0.095042269 -1.7331337e-25)
(1.2860562 -0.090868426 1.4862405e-24)
(1.3055991 -0.08665472 -1.5398244e-25)
(1.324211 -0.082404286 -1.431342e-24)
(1.3418841 -0.078120056 -1.3572495e-25)
(1.3586112 -0.073804774 -1.2693993e-25)
(1.3743854 -0.069461019 -1.1835644e-25)
(1.3892006 -0.065091214 -1.0995576e-25)
(1.4030514 -0.060697647 -1.0172057e-25)
(1.4159326 -0.056282475 -9.3634816e-26)
(1.4278395 -0.051847743 -8.5683532e-26)
(1.438768 -0.047395388 -7.7852753e-26)
(1.4487144 -0.042927255 -7.0129376e-26)
(1.4576754 -0.0384451 -6.2501063e-26)
(1.4656479 -0.033950604 -5.4956136e-26)
(1.4726294 -0.02944538 4.9471224e-26)
(1.4786176 -0.02493098 -4.0072449e-26)
(1.4836108 -0.020408905 -3.2712741e-26)
(1.4876072 -0.015880611 1.2834841e-24)
(1.4906058 -0.01134752 -1.8108749e-26)
(1.4926055 -0.006811022 -1.3117411e-24)
(1.4936058 -0.0022724878 -3.6661727e-27)
(1.4944899 0.0027646464 1.318297e-24)
(1.4934972 0.0082999215 2.7132408e-26)
(1.4915115 0.013832715 -1.2960405e-24)
(1.4885335 0.019361338 -3.4910938e-38)
(1.484564 0.024884084 1.3071758e-24)
(1.4796044 0.030399214 2.78526e-24)
(1.4736561 0.035904945 -1.3247323e-24)
(1.4667211 0.04139944 -2.7278109e-24)
(1.4588016 0.046880799 -1.9041645e-38)
(1.4499001 0.052347048 2.1160135e-39)
(1.4400198 0.057796127 -1.2323596e-38)
(1.4291638 0.063225884 -2.8547516e-38)
(1.417336 0.068634057 -5.6300154e-38)
(1.4045406 0.074018271 -5.5306348e-39)
(1.3907822 0.07937602 -4.0469756e-38)
(1.3760659 0.084704656 -4.9612418e-38)
(1.3603974 0.090001376 -1.5868382e-38)
(1.3437829 0.095263207 3.1477967e-24)
(1.326229 0.10048699 -7.1205105e-38)
(1.3077431 0.10566936 -3.2765193e-24)
(1.2883333 0.11080672 -2.2379087e-38)
(1.2680081 0.11589524 1.6757875e-24)
(1.246777 0.1209308 4.5646581e-25)
(1.2246502 0.12590898 -1.7554475e-24)
(1.2016385 0.13082502 -1.7548808e-38)
(1.1777541 0.13567379 1.8442183e-24)
(1.1530097 0.14044972 5.6670556e-25)
(1.1274193 0.14514678 -1.5235043e-25)
(1.100998 0.14975841 1.9959811e-24)
(1.0737619 0.15427742 1.6897653e-25)
(1.0457287 0.15869594 2.6745408e-25)
(1.0169175 0.16300535 1.505142e-26)
(0.98734887 0.16719611 9.3676638e-26)
(0.95704515 0.17125773 -8.9913826e-25)
(0.92603056 0.17517853 -1.0200123e-24)
(0.89433141 0.17894553 1.6301124e-24)
(0.86197616 0.18254424 1.3454863e-28)
(0.82899588 0.18595845 -1.3633678e-24)
(0.79542426 0.18916994 2.222045e-24)
(0.76129794 0.1921582 1.4349791e-24)
(0.72665681 0.19490004 -3.3194965e-24)
(0.69154425 0.19736919 1.881302e-24)
(0.65600752 0.19953574 2.5886765e-24)
(0.62009815 0.20136554 2.6576663e-26)
(0.58387237 0.20281941 3.373601e-24)
(0.54739177 0.20385231 -4.0210326e-24)
(0.51072397 0.2044123 -2.648875e-25)
(0.4739438 0.20443907 2.4322023e-24)
(0.43713469 0.20386274 -3.5789822e-24)
(0.40039044 0.20260184 3.5149473e-24)
(0.36381805 0.2005614 3.6604362e-24)
(0.32754058 0.19763052 -1.1707244e-23)
(0.29170089 0.19367966 -5.9926282e-24)
(0.25646668 0.18855761 1.3059941e-23)
(0.22203539 0.18208789 1.522874e-24)
(0.18863951 0.1740645 -6.35861e-24)
(0.15655183 0.16424701 -2.6631422e-24)
(0.12609041 0.15235382 1.0385643e-24)
(0.097624465 0.13805455 1.0057472e-24)
(0.071577612 0.12095951 -9.7627384e-24)
(0.048423275 0.10060552 4.8898716e-24)
(0.028708373 0.076451259 9.9449777e-24)
(0.013401161 0.047945831 -5.4461291e-24)
(0.0035641323 0.016798387 -1.3076215e-24)
(0.0035639057 -0.016797243 8.2296273e-25)
(0.013400282 -0.047942694 9.2098303e-25)
(0.028706565 -0.076446439 -1.1344022e-23)
(0.048420311 -0.10059941 2.4718309e-24)
(0.07157331 -0.12095241 -1.8593572e-25)
(0.097618761 -0.13804679 -6.2827782e-24)
(0.12608323 -0.1523456 -1.8829599e-24)
(0.15654311 -0.16423852 1.0472523e-24)
(0.18862926 -0.17405593 -4.6672999e-24)
(0.22202363 -0.18207935 7.9435264e-25)
(0.25645348 -0.18854922 3.3582317e-24)
(0.29168623 -0.19367147 -3.2149145e-24)
(0.3275245 -0.19762263 -4.4301904e-24)
(0.3638007 -0.20055387 1.8041502e-26)
(0.40037184 -0.20259473 4.0479879e-24)
(0.43711488 -0.20385606 -4.57154e-25)
(0.47392292 -0.20443286 0)
(0.51070209 -0.20440657 1.9082261e-24)
(0.54736896 -0.20384709 -1.4410183e-24)
(0.58384874 -0.20281469 -3.7222648e-24)
(0.62007378 -0.20136133 2.7598337e-24)
(0.65598248 -0.19953204 5.4649993e-26)
(0.69151864 -0.197366 -1.5888133e-24)
(0.72663071 -0.19489736 -1.3873576e-24)
(0.76127144 -0.19215601 -1.6502553e-24)
(0.79539745 -0.18916824 7.7622169e-25)
(0.82896883 -0.18595722 2.2507135e-24)
(0.86194897 -0.18254347 1.3392484e-24)
(0.89430414 -0.1789452 -1.0728247e-24)
(0.92600329 -0.17517864 -1.4574586e-24)
(0.95701796 -0.17125826 2.2892951e-24)
(0.98732183 -0.16719704 -1.5852415e-26)
(1.0168907 -0.16300666 -1.1317143e-24)
(1.0457022 -0.15869763 0)
(1.0737357 -0.15427945 0)
(1.1009722 -0.14976078 0)
(1.127394 -0.14514947 -2.0949055e-24)
(1.1529849 -0.14045272 -1.8920456e-24)
(1.1777299 -0.13567707 2.523731e-38)
(1.2016149 -0.13082857 1.7984735e-24)
(1.2246272 -0.12591279 -4.8235675e-25)
(1.2467548 -0.12093485 -1.7143393e-24)
(1.2679866 -0.11589952 1.9034855e-38)
(1.2883126 -0.11081121 1.6390226e-24)
(1.3077232 -0.10567405 2.8930264e-24)
(1.3262099 -0.10049187 -1.5720068e-24)
(1.3437647 -0.095268258 -3.147477e-24)
(1.3603801 -0.090006588 4.717774e-38)
(1.3760496 -0.084710017 6.4428205e-38)
(1.3907668 -0.07938152 7.2494371e-39)
(1.4045262 -0.0740239 -9.1103185e-39)
(1.4173226 -0.068639805 7.3919157e-38)
(1.4291515 -0.063231742 2.7606563e-38)
(1.4400085 -0.057802088 1.2832681e-38)
(1.4498899 -0.052353105 -1.4429052e-38)
(1.4587924 -0.046886946 3.288331e-38)
(1.466713 -0.041405673 2.7276529e-24)
(1.4736491 -0.03591126 7.8266391e-38)
(1.4795985 -0.030405611 -2.6852317e-24)
(1.4845592 -0.024890562 1.1373702e-38)
(1.4885298 -0.019367896 1.3007725e-24)
(1.4915089 -0.013839352 -4.5097021e-26)