/*--------------------------------*- C++ -*----------------------------------*\
  =========                 |
  \\      /  F ield         | OpenFOAM: The Open Source CFD Toolbox
   \\    /   O peration     | Website:  https://openfoam.org
    \\  /    A nd           | Version:  7
     \\/     M anipulation  |
\*---------------------------------------------------------------------------*/
FoamFile
{
    version     2.0;
    format      ascii;
    class       volVectorField;
    location    "1487";
    object      U;
}
// * * * * * * * * * * * * * * * * * * * * * * * * * * * * * * * * * * * * * //

dimensions      [0 1 -1 0 0 0 0];

internalField   nonuniform List<vector> 
31744
(
(1.4840841 0.00025934047 1.3107336e-24)
(1.4830649 0.00075954942 -1.0365246e-27)
(1.4810524 0.001260134 -1.3215217e-24)
(1.4780302 0.0017630811 2.0944652e-27)
(1.4740023 0.0022659808 1.3372641e-24)
(1.4689694 0.0027682568 4.4493035e-27)
(1.462933 0.0032696801 -1.3567828e-24)
(1.455895 0.0037700781 6.1234692e-27)
(1.4478577 0.0042692819 6.9827081e-27)
(1.4388235 0.0047671171 7.8435692e-27)
(1.4287955 0.0052634008 8.7116484e-27)
(1.4177768 0.0057579413 9.5901552e-27)
(1.4057713 0.0062505368 1.0481532e-26)
(1.3927829 0.0067409755 1.1387822e-26)
(1.3788162 0.0072290334 1.2310592e-26)
(1.3638763 0.0077144744 1.3251974e-26)
(1.3479685 0.0081970485 1.4214039e-26)
(1.3310989 0.00867649 1.5198779e-26)
(1.313274 0.0091525167 -1.6887255e-26)
(1.294501 0.009624828 1.7246378e-26)
(1.2747876 0.010093102 1.8314568e-26)
(1.2541421 0.010556995 1.7308658e-24)
(1.2325738 0.011016136 2.0984831e-26)
(1.2100926 0.01147013 -1.7718816e-24)
(1.186709 0.011918546 2.295537e-26)
(1.1624348 0.012360921 1.9095984e-24)
(1.1372824 0.012796751 2.6088001e-26)
(1.1112656 0.013225488 -1.987501e-24)
(1.0843991 0.013646533 2.8377565e-26)
(1.0566988 0.014059229 0)
(1.0281822 0.014462855 0)
(0.9988681 0.014856617 1.5196618e-26)
(0.96877707 0.015239632 1.6740199e-26)
(0.93793143 0.015610938 -1.1351792e-24)
(0.9063555 0.015969417 1.8555538e-26)
(0.87407588 0.016313895 2.5862068e-24)
(0.84112159 0.01664299 -2.3299885e-26)
(0.80752437 0.016955196 -2.5791684e-28)
(0.77331897 0.017248801 2.878536e-24)
(0.73854349 0.017521847 -3.0822735e-24)
(0.70323976 0.017772111 -1.559425e-24)
(0.66745368 0.017997111 -8.6081022e-26)
(0.6312359 0.018193995 -6.5354513e-24)
(0.59464221 0.018359451 2.9010239e-26)
(0.55773443 0.018489752 5.3905714e-24)
(0.52058132 0.018580493 2.0339017e-24)
(0.48325979 0.018626641 -8.2777441e-26)
(0.44585648 0.018622377 -8.0556578e-26)
(0.40847 0.018560862 1.7125599e-25)
(0.3712134 0.018434227 5.0881415e-26)
(0.33421773 0.018233213 4.2431709e-24)
(0.29763621 0.017947082 1.6550184e-26)
(0.26164908 0.017563404 -2.4038958e-24)
(0.2264693 0.017067776 -2.0885726e-25)
(0.1923486 0.016443625 -2.8626361e-24)
(0.15958331 0.015672012 -5.7164641e-24)
(0.12851994 0.014731337 -3.9395458e-26)
(0.099559201 0.013597173 1.3125777e-23)
(0.073158691 0.012241916 -3.8939238e-25)
(0.04983203 0.010634305 -7.1974332e-24)
(0.030129998 0.0087385264 2.1665477e-24)
(0.014659528 0.0065139339 -7.175378e-26)
(0.0041639026 0.0039040273 -2.8862273e-24)
(0.00091933472 0.0011637298 0)
(0.00091929398 -0.0011636514 0)
(0.0041636068 -0.0039037574 5.0077931e-24)
(0.014658567 -0.0065134983 -2.3320332e-24)
(0.030128068 -0.0087379343 2.1688284e-25)
(0.049828904 -0.010633592 2.2053223e-24)
(0.073154185 -0.012241117 6.0441862e-26)
(0.099553204 -0.01359632 1.9797983e-25)
(0.12851242 -0.014730454 5.6072552e-24)
(0.15957422 -0.015671125 1.2070833e-26)
(0.19233795 -0.016442742 -5.3519107e-24)
(0.22645713 -0.017066894 -2.527043e-24)
(0.2616354 -0.017562551 8.2353319e-27)
(0.29762109 -0.01794626 2.5298723e-24)
(0.33420122 -0.018232429 -6.5131047e-27)
(0.37119556 -0.018433487 5.1920119e-26)
(0.40845092 -0.018560169 -4.5208465e-24)
(0.44583625 -0.01862171 1.9276662e-24)
(0.48323846 -0.01862604 7.7809136e-24)
(0.52055902 -0.018579931 -5.4971913e-24)
(0.55771126 -0.018489236 -3.4697938e-24)
(0.59461824 -0.018358985 3.5401543e-24)
(0.63121121 -0.018193575 -1.6157576e-24)
(0.66742838 -0.017996737 -4.7754673e-24)
(0.70321393 -0.017771783 1.6860733e-24)
(0.73851723 -0.017521563 5.9179246e-24)
(0.77329236 -0.017248561 4.1234702e-24)
(0.8074975 -0.016954998 -1.4034875e-24)
(0.84109454 -0.016642834 -3.9619443e-24)
(0.87404873 -0.016313778 4.2641673e-26)
(0.90632834 -0.015969339 2.0214747e-26)
(0.93790432 -0.015610897 -2.4038307e-24)
(0.9687501 -0.015239626 1.2310186e-24)
(0.99884134 -0.014856646 2.1754385e-24)
(1.0281557 -0.014462916 -1.1262644e-24)
(1.0566727 -0.014059321 0)
(1.0843733 -0.013646655 -2.8370527e-26)
(1.1112403 -0.013225639 0)
(1.1372576 -0.012796928 -2.5542242e-26)
(1.1624105 -0.012361122 -2.4218527e-26)
(1.1866854 -0.011918769 1.8151207e-24)
(1.2100696 -0.011470374 -2.2181014e-26)
(1.2325516 -0.011016401 -1.771747e-24)
(1.2541206 -0.010557279 -1.9410525e-26)
(1.2747668 -0.010093405 1.6552779e-24)
(1.2944811 -0.0096251491 -1.7602066e-26)
(1.3132549 -0.0091528546 -1.587766e-24)
(1.3310807 -0.0086768426 -1.5193665e-26)
(1.3479512 -0.0081974146 -1.4208707e-26)
(1.3638599 -0.0077148527 -1.324652e-26)
(1.3788008 -0.0072294227 -1.2305024e-26)
(1.3927685 -0.0067413747 -1.138225e-26)
(1.4057579 -0.006250945 -1.0476154e-26)
(1.4177645 -0.0057583574 -9.5848752e-27)
(1.4287842 -0.0052638241 -8.7063019e-27)
(1.4388133 -0.0047675467 -7.8380759e-27)
(1.4478485 -0.004269717 -6.9769187e-27)
(1.455887 -0.0037705177 -6.11723e-27)
(1.4629261 -0.0032701232 5.4680668e-27)
(1.4689636 -0.0027687022 -4.3494067e-27)
(1.4739977 -0.0022664274 -3.3623825e-27)
(1.4780269 -0.0017635283 1.3261599e-24)
(1.4810507 -0.0012605858 -3.9605227e-29)
(1.4830654 -0.00076003588 -1.3170325e-24)
(1.484085 -0.0002598623 4.2160522e-27)
(1.484294 0.00076118773 1.3475508e-24)
(1.4832872 0.0022692092 -3.5380895e-38)
(1.481275 0.00377778 -1.3179693e-24)
(1.4782561 0.0052870128 2.9339382e-38)
(1.4742328 0.006795108 1.3315931e-24)
(1.469206 0.0083012331 2.7355631e-24)
(1.4631772 0.009804818 -1.3495359e-24)
(1.4561481 0.011305347 -2.7789352e-24)
(1.448121 0.012802304 -3.0970909e-38)
(1.4390984 0.01429516 2.0413349e-38)
(1.4290832 0.015783363 -4.3375413e-38)
(1.4180788 0.017266334 8.970175e-39)
(1.4060887 0.018743468 -4.1064387e-39)
(1.3931171 0.020214127 -3.330507e-38)
(1.3791686 0.021677641 4.8904748e-38)
(1.3642481 0.023133299 5.6240843e-38)
(1.3483611 0.02458035 -6.3708971e-39)
(1.3315137 0.026017998 3.2086559e-24)
(1.3137124 0.027445394 -7.3535953e-38)
(1.2949643 0.028861637 -3.3407455e-24)
(1.2752772 0.03026576 4.3269653e-38)
(1.2546595 0.031656731 1.70921e-24)
(1.2331204 0.033033442 -5.4907184e-38)
(1.2106697 0.0343947 -1.791214e-24)
(1.1873182 0.035739217 4.2488903e-38)
(1.1630776 0.037065601 1.8827781e-24)
(1.1379603 0.038372342 1.9323796e-24)
(1.1119801 0.039657794 -1.9846723e-24)
(1.0851516 0.040920162 -4.7143285e-39)
(1.057491 0.042157476 2.097817e-24)
(1.0290156 0.043367579 -2.1589309e-24)
(0.99974427 0.044548083 -1.2163233e-24)
(0.96969756 0.045696375 2.2779188e-24)
(0.93889778 0.046809485 1.127206e-24)
(0.90736927 0.047884196 -2.6974999e-24)
(0.87513858 0.04891689 -1.0854809e-28)
(0.84223467 0.0499035 2.7770425e-24)
(0.80868926 0.050839459 1.2639202e-24)
(0.77453703 0.051719622 1.407888e-24)
(0.73981597 0.052538192 -1.3348442e-24)
(0.70456777 0.053288554 3.9899152e-26)
(0.66883819 0.053963243 -3.00227e-24)
(0.63267759 0.054553696 -3.3060468e-24)
(0.59614153 0.055050084 -4.2955425e-25)
(0.55929137 0.055441171 1.7547528e-24)
(0.52219542 0.055713929 5.6287409e-24)
(0.48492981 0.055853277 -3.6047634e-24)
(0.44758029 0.055841749 -2.1646945e-24)
(0.41024421 0.055659081 1.9623014e-24)
(0.37303306 0.055281577 5.4432084e-27)
(0.33607582 0.054681654 1.9938017e-24)
(0.29952312 0.053827212 2.7513771e-24)
(0.26355204 0.052680958 -1.7697357e-25)
(0.2283716 0.051199692 -2.4527277e-24)
(0.19422888 0.049333539 2.971034e-24)
(0.16141485 0.047025174 5.847282e-24)
(0.13026997 0.044209015 -3.3484254e-24)
(0.10118847 0.040810165 -6.4736261e-24)
(0.074621619 0.03674316 5.6455335e-25)
(0.051077945 0.031909514 5.5175144e-25)
(0.031108623 0.026193559 7.3610962e-24)
(0.015318461 0.019456518 -2.3446036e-24)
(0.004549533 0.011505661 -1.9431918e-23)
(0.00079099946 0.0035107029 -4.4987041e-25)
(0.00079100059 -0.0035104379 6.1342454e-25)
(0.0045492059 -0.011504871 9.3961819e-24)
(0.015317437 -0.019455245 8.5646843e-24)
(0.031106629 -0.026191906 4.1899748e-24)
(0.051074731 -0.03190753 -7.376698e-24)
(0.074617016 -0.036740975 -3.5049612e-24)
(0.10118239 -0.040807845 -3.0048781e-24)
(0.13026236 -0.044206618 -7.2358552e-25)
(0.16140569 -0.04702275 2.4770343e-24)
(0.19421817 -0.049331111 3.2052831e-24)
(0.22835936 -0.051197301 8.8181004e-27)
(0.26353831 -0.052678634 2.7339973e-24)
(0.29950797 -0.053824978 -1.6642928e-26)
(0.33605928 -0.054679529 -4.6017335e-24)
(0.3730152 -0.055279551 -4.2531273e-24)
(0.41022512 -0.05565717 1.4996306e-25)
(0.44756005 -0.055839986 4.1640079e-24)
(0.48490848 -0.055851631 1.2166671e-25)
(0.52217312 -0.055712425 -4.8413585e-25)
(0.55926822 -0.055439806 1.76045e-25)
(0.59611757 -0.05504886 3.4662031e-24)
(0.63265293 -0.054552613 3.6167357e-25)
(0.66881292 -0.053962298 -2.8804872e-24)
(0.70454198 -0.053287745 2.457868e-25)
(0.73978974 -0.052537517 -1.6275054e-24)
(0.77451045 -0.051719078 -4.1061549e-26)
(0.80866243 -0.050839043 1.1869883e-24)
(0.84220766 -0.049903208 2.7768697e-24)
(0.87511147 -0.048916718 1.1884362e-24)
(0.90734215 -0.047884139 -3.7073842e-24)
(0.93887073 -0.046809539 -1.2834277e-24)
(0.96967063 -0.045696537 -1.0843659e-24)
(0.99971755 -0.044548349 -5.1762867e-26)
(1.0289892 -0.043367943 2.1587529e-24)
(1.0574649 -0.042157934 -2.0976366e-24)
(1.0851259 -0.040920709 3.5188466e-39)
(1.1119548 -0.039658426 -5.8483282e-39)
(1.1379356 -0.038373054 -1.9321931e-24)
(1.1630534 -0.037066389 -4.1599208e-38)
(1.1872947 -0.035740075 1.835576e-24)
(1.2106468 -0.034395624 -8.9377494e-38)
(1.2330982 -0.03303443 -1.7488828e-24)
(1.254638 -0.031657779 -5.3635209e-38)
(1.2752565 -0.030266864 1.671418e-24)
(1.2949444 -0.028862793 3.3404053e-24)
(1.3136934 -0.0274466 -1.6026005e-24)
(1.3314956 -0.026019249 -3.208337e-24)
(1.3483439 -0.024581643 4.306089e-39)
(1.3642318 -0.02313463 4.5539911e-38)
(1.3791532 -0.021679007 -2.9010945e-38)
(1.3931028 -0.020215527 4.8613425e-38)
(1.4060753 -0.018744897 5.7968381e-39)
(1.4180664 -0.017267791 3.7492567e-38)
(1.429072 -0.015784847 -2.1236977e-38)
(1.4390882 -0.014296669 -4.5865997e-39)
(1.4481119 -0.012803838 2.9819529e-38)
(1.4561401 -0.011306906 2.7787814e-24)
(1.4631703 -0.0098064056 3.142088e-38)
(1.4692003 -0.0083028578 -2.7354518e-24)
(1.4742282 -0.0067967891 5.9954916e-38)
(1.4782528 -0.0052887905 1.3249385e-24)
(1.481273 -0.003779752 3.2839445e-38)
(1.4832866 -0.0022717069 -1.3419967e-24)
(1.484294 -0.00076502024 -5.0778688e-38)
(1.4847229 0.0012593865 1.313241e-24)
(1.4837213 0.0037766637 -7.5197279e-27)
(1.4817142 0.006291333 -1.3253759e-24)
(1.4787031 0.0088047683 -1.3950103e-26)
(1.4746899 0.01131594 1.3100298e-24)
(1.4696758 0.013823843 -2.2288492e-26)
(1.4636623 0.016327568 -1.3185747e-24)
(1.4566511 0.018826239 -3.0674767e-26)
(1.4486445 0.021318979 -3.4909474e-26)
(1.439645 0.023804891 -3.918383e-26)
(1.4296555 0.026283048 -4.3507146e-26)
(1.4186794 0.028752481 -4.7887932e-26)
(1.4067203 0.031212178 -5.2334592e-26)
(1.3937823 0.033661073 -5.685571e-26)
(1.37987 0.036098045 -6.1460023e-26)
(1.3649884 0.038521908 -6.6156947e-26)
(1.349143 0.04093141 -7.0956392e-26)
(1.3323399 0.043325219 -7.5868864e-26)
(1.3145856 0.045701921 8.4292928e-26)
(1.2958873 0.04806001 -8.6080386e-26)
(1.2762528 0.050397875 -9.1405274e-26)
(1.2556905 0.052713794 1.6078424e-24)
(1.2342096 0.055005918 -1.0256764e-25)
(1.2118201 0.057272258 -1.8948602e-24)
(1.1885327 0.059510669 -1.1452861e-25)
(1.164359 0.061718829 1.7567404e-24)
(1.1393118 0.063894221 -1.2744788e-25)
(1.1134045 0.066034108 -1.9790272e-24)
(1.0866522 0.068135496 -1.4153411e-25)
(1.0590707 0.070195112 0)
(1.0306775 0.072209358 3.2736497e-24)
(1.0014915 0.074174292 2.1438431e-24)
(0.97153325 0.07608549 -3.2872048e-24)
(0.94082498 0.077938131 -2.4457277e-24)
(0.90939107 0.079726819 9.1709084e-26)
(0.87725794 0.081445523 -2.1247612e-25)
(0.84445453 0.083087509 2.8153158e-24)
(0.81101239 0.084645207 1.1855771e-25)
(0.77696606 0.086110079 -2.6375384e-24)
(0.74235336 0.087472524 1.2152174e-25)
(0.70721562 0.088721589 1.3569827e-25)
(0.67159828 0.089844903 -1.4820999e-25)
(0.63555121 0.090828302 -3.0182421e-25)
(0.59912929 0.091655517 -3.4678007e-24)
(0.56239317 0.09230795 -3.5900861e-25)
(0.52541003 0.092764116 1.7228128e-24)
(0.4882547 0.092999094 1.3908055e-24)
(0.45101119 0.092984073 1.6150602e-24)
(0.41377458 0.092685485 -2.3842872e-24)
(0.37665345 0.092064238 4.6076766e-24)
(0.33977317 0.091074765 -4.3485055e-25)
(0.30327981 0.089664009 -2.7065124e-24)
(0.26734473 0.087770208 5.2206313e-25)
(0.23217014 0.085321641 -5.5828682e-24)
(0.19799479 0.082235307 -3.7183236e-26)
(0.16510001 0.07841535 1.1622312e-24)
(0.13381523 0.073751415 8.3153344e-25)
(0.1045227 0.068116569 3.2142698e-24)
(0.077661481 0.061364373 -6.3752491e-24)
(0.053729519 0.053324332 7.3072902e-24)
(0.033272989 0.043794157 7.5614201e-24)
(0.01689771 0.032525892 -7.3353819e-24)
(0.0055003347 0.019193992 -1.1087237e-23)
(0.00098591036 0.0059487727 -1.610266e-24)
(0.00098585898 -0.0059483592 1.427195e-24)
(0.0054999595 -0.019192712 1.2037362e-23)
(0.016896594 -0.032523794 2.645872e-24)
(0.033270872 -0.043791448 3.746786e-24)
(0.053726187 -0.053321144 -6.1021585e-25)
(0.077656735 -0.061360824 -3.3850822e-24)
(0.10451651 -0.068112819 -5.464526e-24)
(0.13380753 -0.073747539 4.177734e-25)
(0.16509074 -0.078411385 7.4764394e-24)
(0.19798398 -0.082231355 -1.4015145e-25)
(0.23215782 -0.085317755 -2.7653037e-24)
(0.26733093 -0.087766414 3.8778172e-25)
(0.30326458 -0.089660376 -8.3578376e-25)
(0.33975658 -0.091071296 0)
(0.37663554 -0.092060938 2.2024862e-24)
(0.41375544 -0.092682387 2.0687696e-25)
(0.45099094 -0.092981189 1.6545026e-24)
(0.48823341 -0.092996437 -1.5635797e-24)
(0.52538776 -0.092761674 -1.7059383e-24)
(0.56237004 -0.092305745 1.660934e-24)
(0.59910536 -0.091653539 3.3661888e-25)
(0.63552658 -0.090826569 -4.4738607e-25)
(0.67157306 -0.089843392 -1.6157813e-24)
(0.70718988 -0.088720305 1.2441073e-25)
(0.7423272 -0.087471463 3.1106703e-24)
(0.77693956 -0.086109235 -1.1641788e-25)
(0.81098563 -0.084644575 -1.5133446e-24)
(0.84442761 -0.083087084 -2.482925e-24)
(0.87723093 -0.081445297 -1.4126534e-24)
(0.90936404 -0.079726786 1.4669315e-24)
(0.94079802 -0.077938284 1.7880419e-25)
(0.97150643 -0.076085822 1.0940166e-24)
(1.0014649 -0.074174796 -1.3569272e-26)
(1.0306512 -0.072210026 0)
(1.0590447 -0.070195936 0)
(1.0866265 -0.068136468 1.415001e-25)
(1.1133794 -0.066035221 0)
(1.1392871 -0.063895469 1.2741908e-25)
(1.1643349 -0.061720202 1.2082627e-25)
(1.1885092 -0.059512161 1.9450959e-24)
(1.2117973 -0.057273862 1.0840709e-25)
(1.2341875 -0.055007628 -1.6417221e-24)
(1.2556691 -0.052715603 9.6864867e-26)
(1.2762322 -0.050399777 1.7584611e-24)
(1.2958675 -0.048061999 8.6050616e-26)
(1.3145667 -0.045703992 -1.6827734e-24)
(1.3323218 -0.043327365 7.5839996e-26)
(1.3491259 -0.040933626 7.092777e-26)
(1.3649722 -0.038524189 6.612861e-26)
(1.3798547 -0.036100385 6.1431886e-26)
(1.393768 -0.033663469 5.6827719e-26)
(1.406707 -0.031214626 5.2306721e-26)
(1.4186671 -0.028754977 4.7860121e-26)
(1.4296443 -0.026285588 4.3479401e-26)
(1.4396349 -0.023807475 3.915614e-26)
(1.4486354 -0.021321604 3.4881693e-26)
(1.4566431 -0.018828907 3.064671e-26)
(1.4636554 -0.016330284 -2.7548287e-26)
(1.4696701 -0.013826615 2.2258467e-26)
(1.4746854 -0.011318788 1.8090974e-26)
(1.4786997 -0.0088077247 1.3353263e-24)
(1.4817119 -0.0062944533 9.821426e-27)
(1.4837202 -0.0037800801 -1.3040814e-24)
(1.4847226 -0.0012633351 3.5448324e-27)
(1.4853621 0.0017592974 1.3089318e-24)
(1.4843637 0.0052791936 -1.1700311e-37)
(1.4823644 0.0087964215 -1.3115389e-24)
(1.4793652 0.012311143 0)
(1.4753675 0.015822352 1.3232547e-24)
(1.4703726 0.019328881 -5.9912573e-38)
(1.4643821 0.022829539 -1.3411496e-24)
(1.4573978 0.026323122 0)
(1.4494219 0.029808404 0)
(1.440457 0.033284124 0)
(1.4305061 0.036748977 0)
(1.4195723 0.040201603 0)
(1.4076595 0.043640578 0)
(1.3947718 0.047064408 0)
(1.3809138 0.050471517 0)
(1.3660904 0.053860242 0)
(1.3503073 0.057228824 0)
(1.3335705 0.060575397 0)
(1.3158866 0.063897975 0)
(1.2972628 0.067194446 0)
(1.277707 0.070462552 0)
(1.2572276 0.073699879 1.6980475e-24)
(1.2358339 0.076903836 -7.5280118e-38)
(1.2135358 0.080071635 -1.779253e-24)
(1.1903442 0.083200274 0)
(1.1662708 0.086286502 1.8698549e-24)
(1.1413282 0.089326797 3.837802e-30)
(1.1155302 0.092317331 -1.8728505e-24)
(1.0888915 0.09525392 0)
(1.0614284 0.098131991 0)
(1.0331582 0.10094653 0)
(1.0040998 0.103692 -1.8549964e-24)
(0.97427365 0.10636228 2.5331001e-25)
(0.9437022 0.10895062 -2.4533533e-25)
(0.91240961 0.11144953 -1.4066331e-25)
(0.88042229 0.11385057 -1.0427968e-25)
(0.84776902 0.11614441 -1.3427664e-24)
(0.81448118 0.11832051 1.8698071e-24)
(0.78059309 0.12036702 1.2610172e-24)
(0.74614213 0.12227058 1.3515751e-24)
(0.71116932 0.12401603 3.2866565e-24)
(0.67571952 0.1255862 1.2952965e-25)
(0.63984185 0.12696145 -2.8881313e-24)
(0.6035903 0.1281193 4.4647105e-25)
(0.56702432 0.12903399 -4.9467837e-25)
(0.53020953 0.1296758 5.3991461e-24)
(0.49321888 0.13001038 -1.2405007e-26)
(0.45613386 0.12999787 -2.0489046e-24)
(0.41904631 0.12959189 -3.9850249e-24)
(0.38206086 0.12873853 -1.6885955e-24)
(0.34529781 0.12737486 8.1231714e-24)
(0.30889686 0.12542754 -2.7997041e-24)
(0.27302159 0.12281109 1.2679133e-24)
(0.2378646 0.11942602 2.2203992e-25)
(0.20365328 0.11515681 -8.6493358e-24)
(0.17065549 0.10986951 2.8429129e-25)
(0.1391852 0.10340894 6.547382e-24)
(0.10960757 0.095595279 -2.5397968e-24)
(0.08234359 0.086219222 -6.7837057e-25)
(0.057873776 0.075035401 2.0720963e-24)
(0.036729704 0.061751987 -4.2104324e-25)
(0.019504087 0.046015245 4.163911e-24)
(0.0071273514 0.027394179 5.889153e-24)
(0.0014678438 0.0086710978 -1.2279053e-25)
(0.0014677578 -0.0086705026 -5.8603683e-25)
(0.0071268765 -0.027392378 -5.6804812e-24)
(0.019502828 -0.046012317 1.2054904e-23)
(0.036727398 -0.06174821 3.415643e-24)
(0.057870246 -0.075030991 -6.0723499e-24)
(0.082338662 -0.086214334 2.6178961e-25)
(0.10960117 -0.095590072 -6.4009795e-27)
(0.13917732 -0.10340358 -6.7358199e-24)
(0.17064604 -0.10986404 -2.8413143e-24)
(0.20364228 -0.11515135 4.7525552e-24)
(0.23785214 -0.11942066 7.5823441e-24)
(0.27300766 -0.12280585 -8.5579393e-25)
(0.30888152 -0.12542249 -4.1254545e-24)
(0.34528113 -0.12737006 2.0792216e-24)
(0.38204291 -0.12873398 -2.182401e-24)
(0.41902716 -0.12958762 -2.729445e-24)
(0.45611358 -0.12999389 5.8596279e-24)
(0.49319757 -0.13000672 1.3765717e-24)
(0.53018729 -0.12967245 -3.2862933e-24)
(0.56700122 -0.12903096 3.4237479e-24)
(0.60356642 -0.1281166 -2.0280006e-24)
(0.63981728 -0.12695906 -3.4077408e-24)
(0.67569438 -0.12558414 1.6103164e-24)
(0.71114368 -0.12401429 1.5387452e-24)
(0.74611607 -0.12226914 -1.5905725e-24)
(0.7805667 -0.12036588 -3.0445951e-24)
(0.81445455 -0.11831967 1.5659662e-24)
(0.84774222 -0.11614386 2.5288933e-24)
(0.88039541 -0.1138503 4.1839994e-24)
(0.91238273 -0.11144953 -1.2198629e-24)
(0.94367539 -0.10895088 -3.5283648e-24)
(0.97424697 -0.10636279 -1.0888316e-24)
(1.0040733 -0.10369274 6.7746623e-30)
(1.033132 -0.1009475 1.1160754e-24)
(1.0614025 -0.098133181 0)
(1.0888661 -0.095255318 0)
(1.1155052 -0.092318926 -9.7714924e-26)
(1.1413037 -0.089328579 0)
(1.1662468 -0.08628846 0)
(1.1903209 -0.083202398 1.8231567e-24)
(1.2135131 -0.080073917 6.4105224e-41)
(1.2358119 -0.076906265 -1.7373404e-24)
(1.2572064 -0.073702447 0)
(1.2776865 -0.07046525 1.6606036e-24)
(1.2972432 -0.067197265 7.3941738e-38)
(1.3158678 -0.063900907 -1.5923898e-24)
(1.3335526 -0.060578434 0)
(1.3502903 -0.057231959 0)
(1.3660743 -0.053863467 0)
(1.3808986 -0.050474826 0)
(1.3947577 -0.047067795 0)
(1.4076464 -0.043644037 0)
(1.4195602 -0.040205129 0)
(1.4304949 -0.036752566 0)
(1.440447 -0.033287773 0)
(1.4494129 -0.029812111 0)
(1.4573899 -0.026326888 0)
(1.4643753 -0.022833366 0)
(1.4703669 -0.019332777 0)
(1.4753629 -0.015826332 0)
(1.4793617 -0.012315228 1.316669e-24)
(1.482362 -0.0088006425 1.178251e-37)
(1.4843624 -0.005283593 -1.3081342e-24)
(1.4853617 -0.0017639157 0)
(1.4862004 0.0022570742 1.3059289e-24)
(1.4852065 0.0067749085 1.1428779e-26)
(1.4832173 0.011290029 -1.2870556e-24)
(1.4802337 0.01580165 2.5546376e-26)
(1.4762565 0.020308528 1.3495798e-24)
(1.4712872 0.024809269 4.0198863e-26)
(1.4653273 0.029302403 -1.3841258e-24)
(1.4583788 0.033786411 5.5115565e-26)
(1.4504439 0.038259726 6.2681686e-26)
(1.4415251 0.042720728 7.0330683e-26)
(1.4316253 0.047167736 7.8073479e-26)
(1.420748 0.051598994 8.592217e-26)
(1.4088969 0.056012667 9.3889817e-26)
(1.396076 0.060406826 1.0199045e-25)
(1.3822901 0.06477944 1.1023905e-25)
(1.3675442 0.069128363 1.1865174e-25)
(1.3518438 0.073451327 1.2724579e-25)
(1.3351952 0.077745925 1.3603987e-25)
(1.3176048 0.082009599 -1.5112642e-25)
(1.2990801 0.086239625 1.5431072e-25)
(1.2796288 0.090433095 1.6383326e-25)
(1.2592595 0.094586899 1.8628063e-24)
(1.2379816 0.098697701 1.8378293e-25)
(1.215805 0.10276192 -1.5754634e-24)
(1.1927407 0.10677568 2.051419e-25)
(1.1688004 0.11073481 2.0760127e-24)
(1.1439968 0.11463479 -7.6583256e-25)
(1.1183437 0.1184707 -1.7189271e-24)
(1.0918561 0.12223718 1.0487905e-24)
(1.06455 0.12592836 0)
(1.036443 0.12953781 0)
(1.0075539 0.13305845 1.2379268e-26)
(0.97790318 0.13648246 1.9471637e-24)
(0.94751321 0.13980121 1.2127749e-24)
(0.91640814 0.14300508 -2.5522596e-24)
(0.88461422 0.14608338 -1.1012575e-24)
(0.8521601 0.14902417 -1.7332101e-24)
(0.8190769 0.15181402 1.3773503e-24)
(0.7853986 0.15443786 1.4247784e-24)
(0.75116218 0.15687868 -3.066005e-24)
(0.71640808 0.15911728 -2.0500156e-26)
(0.68118042 0.16113179 -2.6899683e-25)
(0.6455274 0.16289734 -3.4256503e-24)
(0.60950184 0.1643855 3.399798e-24)
(0.57316163 0.1655636 3.0752262e-24)
(0.53657046 0.16639408 -2.476187e-24)
(0.49979881 0.16683355 3.3039325e-24)
(0.46292497 0.16683164 1.0651696e-24)
(0.42603686 0.16632991 -3.3401286e-24)
(0.38923405 0.16526029 -5.1358382e-24)
(0.35263057 0.16354338 4.0301093e-24)
(0.3163584 0.16108666 -4.1860612e-25)
(0.28057133 0.15778206 -8.811525e-25)
(0.24545022 0.15350364 5.7205593e-24)
(0.21120849 0.14810487 -3.8877498e-24)
(0.17809727 0.1414151 -6.7564347e-24)
(0.14641124 0.1332358 -1.2680963e-26)
(0.11649366 0.12333556 9.0351804e-24)
(0.08874159 0.11144349 1.5360578e-24)
(0.063609984 0.097240634 6.6015523e-24)
(0.041603867 0.080347564 2.0754158e-24)
(0.023286653 0.060312029 -7.5787146e-24)
(0.0096237551 0.036623835 -1.3331817e-24)
(0.0022505255 0.01207673 3.8340571e-25)
(0.0022503879 -0.012075907 2.743124e-26)
(0.0096231253 -0.036621446 3.4370616e-24)
(0.023285183 -0.060308237 -9.2608332e-26)
(0.041601302 -0.080342688 4.2555836e-24)
(0.063606166 -0.097234962 -5.1917833e-25)
(0.088736388 -0.11143726 -6.5262319e-24)
(0.116487 -0.12332894 4.8460067e-24)
(0.14640307 -0.13322896 -2.9717039e-26)
(0.17808757 -0.14140816 -4.2098701e-24)
(0.21119729 -0.14809795 1.6658706e-25)
(0.24543758 -0.15349684 7.5335622e-24)
(0.28055722 -0.15777539 1.1695479e-24)
(0.31634289 -0.16108023 -6.3425972e-24)
(0.35261378 -0.16353728 -3.1378578e-24)
(0.38921603 -0.16525452 -2.1559446e-24)
(0.42601764 -0.16632449 4.1561606e-25)
(0.46290466 -0.16682661 2.360625e-24)
(0.4997775 -0.16682889 -6.8792261e-25)
(0.53654824 -0.16638984 2.4806275e-24)
(0.57313857 -0.16555976 -3.8504307e-24)
(0.60947804 -0.16438208 -2.4028967e-24)
(0.64550293 -0.16289433 3.5330069e-24)
(0.68115538 -0.16112919 1.2705896e-25)
(0.71638255 -0.15911508 -1.4656714e-25)
(0.75113625 -0.15687688 1.0217401e-24)
(0.78537235 -0.15443645 1.1048834e-24)
(0.81905043 -0.15181298 -1.1664347e-24)
(0.85213347 -0.1490235 -1.3490636e-24)
(0.88458752 -0.14608307 1.2908969e-24)
(0.91638144 -0.14300511 -6.0490244e-25)
(0.94748659 -0.13980157 -1.1014793e-24)
(0.9778767 -0.13648314 6.7634627e-26)
(1.0075276 -0.13305944 6.2238721e-26)
(1.036417 -0.12953909 0)
(1.0645244 -0.12592992 0)
(1.0918309 -0.12223901 -1.0486972e-24)
(1.118319 -0.11847278 8.3275701e-31)
(1.1439725 -0.11463711 7.6579954e-25)
(1.1687766 -0.11073735 -2.1637911e-25)
(1.1927176 -0.10677843 1.6081908e-24)
(1.2157826 -0.10276487 -1.9421303e-25)
(1.2379598 -0.098700845 -1.9118783e-24)
(1.2592385 -0.09459022 -1.7359281e-25)
(1.2796085 -0.090436582 1.4882104e-24)
(1.2990606 -0.086243267 -1.5425711e-25)
(1.3175862 -0.082013386 -1.4331814e-24)
(1.3351774 -0.077749847 -1.3598752e-25)
(1.351827 -0.073455374 -1.2719397e-25)
(1.3675283 -0.069132526 -1.186004e-25)
(1.3822751 -0.064783709 -1.1018814e-25)
(1.396062 -0.060411195 -1.0193989e-25)
(1.4088838 -0.056017129 -9.3839533e-26)
(1.420736 -0.051603541 -8.5872092e-26)
(1.4316143 -0.047172363 -7.8023557e-26)
(1.4415151 -0.042725431 -7.0280842e-26)
(1.4504349 -0.038264501 -6.2631813e-26)
(1.458371 -0.033791257 -5.5065491e-26)
(1.4653206 -0.029307321 4.9564161e-26)
(1.4712815 -0.024814264 -4.0147611e-26)
(1.4762519 -0.020313608 -3.2788615e-26)
(1.4802301 -0.015806828 1.2847468e-24)
(1.4832149 -0.011295318 -1.8288007e-26)
(1.4852051 -0.0067803206 -1.3135964e-24)
(1.4861999 -0.0022626014 -4.5352672e-27)
(1.4872254 0.0027523536 1.3201256e-24)
(1.4862375 0.0082622544 2.7661727e-26)
(1.484261 0.013769275 -1.2974213e-24)
(1.4812965 0.019271987 -3.4952712e-38)
(1.4773448 0.024768804 1.3086022e-24)
(1.4724074 0.030258037 2.7884884e-24)
(1.4664858 0.035737913 -1.3262329e-24)
(1.4595819 0.041206593 -2.7309558e-24)
(1.451698 0.046662168 -1.906768e-38)
(1.4428366 0.052102658 2.1143966e-39)
(1.4330007 0.057526005 -1.2340704e-38)
(1.4221937 0.062930058 -2.8589669e-38)
(1.4104194 0.068312565 -5.6375173e-38)
(1.3976818 0.073671159 -5.542728e-39)
(1.3839858 0.07900335 -4.0526661e-38)
(1.3693363 0.084306505 -4.9681776e-38)
(1.353739 0.089577841 -1.5896525e-38)
(1.3372001 0.094814406 3.1519775e-24)
(1.3197262 0.10001306 -7.1300719e-38)
(1.3013248 0.10517048 -3.280963e-24)
(1.2820036 0.11028308 -2.2411283e-38)
(1.2617714 0.11534706 1.6780977e-24)
(1.2406375 0.12035834 4.5716989e-25)
(1.2186121 0.12531253 -1.7578939e-24)
(1.1957061 0.13020491 -1.7572741e-38)
(1.1719313 0.13503037 1.8467998e-24)
(1.1473006 0.13978338 5.67344e-25)
(1.1218278 0.14445795 -1.5250436e-25)
(1.0955278 0.14904753 1.9987537e-24)
(1.068417 0.153545 1.6910526e-25)
(1.0405127 0.15794252 2.675571e-25)
(1.0118339 0.16223146 1.5058799e-26)
(0.98240111 0.16640236 9.380128e-26)
(0.95223658 0.17044474 -9.0075776e-25)
(0.92136438 0.17434693 -1.0215901e-24)
(0.88981068 0.17809599 1.6318014e-24)
(0.85760382 0.18167746 1.3471293e-28)
(0.82477469 0.18507513 -1.3649642e-24)
(0.79135687 0.18827081 2.223067e-24)
(0.75738682 0.191244 1.4365676e-24)
(0.72290429 0.19397153 -3.3222338e-24)
(0.6879525 0.19642714 1.8823649e-24)
(0.65257854 0.19858095 2.592609e-24)
(0.6168338 0.20039883 2.6520714e-26)
(0.58077433 0.20184163 3.3760038e-24)
(0.54446157 0.20286438 -4.0223927e-24)
(0.50796299 0.2034152 -2.6371534e-25)
(0.47135328 0.2034339 2.431659e-24)
(0.43471569 0.20285075 -3.5820569e-24)
(0.39814389 0.2015845 3.5178216e-24)
(0.36174472 0.19954052 3.6631355e-24)
(0.32564107 0.19660834 -1.1703401e-23)
(0.28997562 0.19265906 -5.984676e-24)
(0.25491581 0.18754233 1.3050314e-23)
(0.22065877 0.18108282 1.5140662e-24)
(0.18743656 0.17307614 -6.3482319e-24)
(0.15552131 0.16328399 -2.6458322e-24)
(0.12523008 0.15142756 1.0471078e-24)
(0.096930518 0.13717997 9.996908e-25)
(0.071043929 0.12015558 -9.7449844e-24)
(0.048038276 0.099895261 4.8747901e-24)
(0.028442376 0.075859842 1.001698e-23)
(0.013267917 0.047489968 -5.5400476e-24)
(0.0035231314 0.016580384 -1.3521533e-24)
(0.0035229127 -0.016579273 8.6035435e-25)
(0.013267065 -0.047486913 8.7861486e-25)
(0.028440621 -0.075855138 -1.1418386e-23)
(0.048035393 -0.099889287 2.4671575e-24)
(0.071039739 -0.12014864 -1.7397833e-25)
(0.096924959 -0.13717238 -6.273334e-24)
(0.12522308 -0.15141952 -1.8706696e-24)
(0.1555128 -0.16327568 1.0557061e-24)
(0.18742655 -0.17306775 -4.6540172e-24)
(0.2206473 -0.18107445 7.8976244e-25)
(0.25490293 -0.18753411 3.3533711e-24)
(0.28996132 -0.19265105 -3.1986583e-24)
(0.32562539 -0.19660062 -4.4297967e-24)
(0.3617278 -0.19953315 1.8045025e-26)
(0.39812576 -0.20157754 4.0488326e-24)
(0.43469637 -0.20284421 -4.5558561e-25)
(0.47133292 -0.20342782 0)
(0.50794167 -0.20340959 1.9149122e-24)
(0.54443936 -0.20285928 -1.4431138e-24)
(0.58075132 -0.20183702 -3.7239153e-24)
(0.61681007 -0.20039472 2.7592001e-24)
(0.65255418 -0.19857733 5.4562806e-26)
(0.68792758 -0.19642402 -1.5902786e-24)
(0.72287891 -0.1939689 -1.3887738e-24)
(0.75736106 -0.19124185 -1.6514206e-24)
(0.79133081 -0.18826913 7.7804205e-25)
(0.82474842 -0.1850739 2.2537795e-24)
(0.8575774 -0.18167668 1.3408427e-24)
(0.8897842 -0.17809564 -1.0741644e-24)
(0.92133791 -0.17434701 -1.4590523e-24)
(0.9522102 -0.17044521 2.2923085e-24)
(0.98237488 -0.16640323 -1.5857923e-26)
(1.0118079 -0.1622327 -1.1332442e-24)
(1.0404869 -0.15794411 0)
(1.0683916 -0.15354693 0)
(1.0955029 -0.14904979 0)
(1.1218032 -0.14446051 -2.097774e-24)
(1.1472765 -0.13978623 -1.8946957e-24)
(1.1719078 -0.13503349 2.5270815e-38)
(1.1956832 -0.13020829 1.8009905e-24)
(1.2185899 -0.12531616 -4.8305601e-25)
(1.240616 -0.1203622 -1.7167201e-24)
(1.2617506 -0.11535113 1.9062327e-38)
(1.2819836 -0.11028735 1.6412678e-24)
(1.3013055 -0.10517494 2.8967815e-24)
(1.3197078 -0.1000177 -1.5741201e-24)
(1.3371826 -0.094819205 -3.1516621e-24)
(1.3537224 -0.089582791 4.7247086e-38)
(1.3693206 -0.084311595 6.4514373e-38)
(1.383971 -0.07900857 7.2638552e-39)
(1.397668 -0.0736765 -9.1141117e-39)
(1.4104065 -0.068318017 7.4016209e-38)
(1.4221818 -0.062935613 2.7647614e-38)
(1.4329898 -0.057531656 1.2850473e-38)
(1.4428267 -0.052108399 -1.4440034e-38)
(1.4516892 -0.046667994 3.292558e-38)
(1.4595741 -0.041212501 2.7307987e-24)
(1.4664791 -0.035743902 7.8359611e-38)
(1.4724018 -0.030264107 -2.6882143e-24)
(1.4773402 -0.024774958 1.1387681e-38)
(1.4812929 -0.019278229 1.3021684e-24)
(1.4842585 -0.013775607 -4.5427766e-26)
(1.486236 -0.0082686743 -1.321379e-24)