/*--------------------------------*- C++ -*----------------------------------*\
  =========                 |
  \\      /  F ield         | OpenFOAM: The Open Source CFD Toolbox
   \\    /   O peration     | Website:  https://openfoam.org
    \\  /    A nd           | Version:  7
     \\/     M anipulation  |
\*---------------------------------------------------------------------------*/
FoamFile
{
    version     2.0;
    format      ascii;
    class       volVectorField;
    location    "0";
    object      Upot;
}
// * * * * * * * * * * * * * * * * * * * * * * * * * * * * * * * * * * * * * //

dimensions      [0 1 -1 0 0 0 0];

internalField   nonuniform List<vector> 
31744
(
(-0 -0 -0)
(0.28956092 -0.0038716429 -2.2749534e-23)
(0.2939043 -0.0039297181 1.6689403e-21)
(0.29834614 -0.0039891102 -2.2959209e-23)
(0.30288945 -0.0040498591 -1.7665803e-21)
(0.30753733 -0.0041120065 -2.4161896e-23)
(0.31229303 -0.0041755958 1.8224321e-21)
(0.3171599 -0.0042406719 -2.4407065e-23)
(0.32214143 -0.0043072815 -2.4790435e-23)
(0.32724126 -0.0043754731 -2.518291e-23)
(0.33246316 -0.0044452974 -2.5584781e-23)
(0.33781106 -0.0045168069 -2.5996352e-23)
(0.34328905 -0.0045900562 -2.6417936e-23)
(0.34890138 -0.0046651023 -2.6849862e-23)
(0.35465247 -0.0047420045 -2.729247e-23)
(0.36054695 -0.0048208245 -2.7746117e-23)
(0.36658961 -0.0049016266 -2.8211171e-23)
(0.37278547 -0.004984478 -2.868802e-23)
(0.37913974 -0.0050694485 3.0398467e-23)
(0.38565789 -0.0051566112 -2.9678727e-23)
(0.39234558 -0.005246042 -3.0193444e-23)
(0.39920875 -0.0053378204 -2.3283562e-21)
(0.4062536 -0.0054320295 -3.1918269e-23)
(0.4134866 -0.0055287559 2.3479896e-21)
(0.4209145 -0.0056280901 -3.2392311e-23)
(0.42854437 -0.0057301268 -2.4994544e-21)
(0.4363836 -0.0058349652 -3.4290918e-23)
(0.44443993 -0.0059427089 2.5579612e-21)
(0.45272145 -0.0060534663 -3.4840551e-23)
(0.46123661 -0.0061673511 0)
(0.46999432 -0.0062844825 0)
(0.47900388 -0.0064049873 -1.6890104e-23)
(0.48827504 -0.0065289811 -1.8003478e-23)
(0.49781805 -0.0066566444 1.3741499e-21)
(0.50764368 -0.0067880659 -1.8673694e-23)
(0.51776326 -0.006923444 -3.0428145e-21)
(0.52818869 -0.007062899 2.1913322e-23)
(0.53893258 -0.0072066382 2.9692281e-25)
(0.55000821 -0.0073548372 -3.2746873e-21)
(0.56142964 -0.0075076802 3.4288856e-21)
(0.57321185 -0.0076656546 1.7193402e-21)
(0.58537079 -0.0078287164 6.7313942e-23)
(0.59792348 -0.0079968389 6.9902524e-21)
(0.61088825 -0.0081708463 -2.0610874e-23)
(0.62428479 -0.0083507921 -5.5267932e-21)
(0.63813437 -0.008536966 -2.0605605e-21)
(0.65246005 -0.0087297771 5.3433284e-23)
(0.66728673 -0.0089296828 1.0813316e-22)
(0.68264121 -0.0091370777 -1.6332366e-22)
(0.69855224 -0.0093522484 -2.9009006e-23)
(0.71505027 -0.0095760545 -3.8680871e-21)
(0.73216702 -0.0098091469 -1.4729192e-23)
(0.74993491 -0.010051452 2.065554e-21)
(0.76838586 -0.010303958 1.7668018e-22)
(0.7875501 -0.010567267 2.3321239e-21)
(0.80745445 -0.010841948 4.5530282e-21)
(0.82812032 -0.011129192 -1.0286887e-22)
(0.84956181 -0.011429332 -9.9650642e-21)
(0.871784 -0.011743229 2.8784779e-22)
(0.89478217 -0.012070375 5.2327894e-21)
(0.91854421 -0.012410221 -1.5191369e-21)
(0.94306095 -0.012763875 -2.3156772e-23)
(0.96835346 -0.013171731 1.7148144e-21)
(0.99050903 -0.013246425 4.5041288e-23)
(-0.99050905 -0.013246405 2.2192378e-21)
(-0.96835348 -0.013172203 3.1170807e-21)
(-0.94306096 -0.012764387 -1.5350646e-21)
(-0.91854424 -0.01240974 -8.929773e-24)
(-0.89478221 -0.012069037 1.501466e-21)
(-0.87178409 -0.011741475 1.3074638e-22)
(-0.84956194 -0.011427203 7.4020263e-23)
(-0.82812044 -0.011126279 4.4093161e-21)
(-0.80745457 -0.010839116 8.4537828e-24)
(-0.78755022 -0.010564518 -4.4090871e-21)
(-0.76838595 -0.010301637 -2.1910743e-21)
(-0.74993498 -0.010049573 7.1471834e-24)
(-0.73216708 -0.0098076774 2.2075125e-21)
(-0.7150503 -0.0095753317 -3.4918222e-24)
(-0.69855228 -0.0093515492 2.9227705e-23)
(-0.68264123 -0.0091364089 -4.2790942e-21)
(-0.66728675 -0.0089293235 1.8633758e-21)
(-0.65246008 -0.0087294643 7.7476237e-21)
(-0.63813439 -0.0085366465 -5.5693858e-21)
(-0.62428479 -0.0083507921 -3.5782489e-21)
(-0.61088825 -0.0081708463 3.6979673e-21)
(-0.59792348 -0.0079968389 -1.744544e-21)
(-0.58537079 -0.0078287164 -5.166479e-21)
(-0.57321185 -0.0076656546 1.8584152e-21)
(-0.56142964 -0.0075076802 6.6162435e-21)
(-0.55000821 -0.0073548372 4.6817115e-21)
(-0.53893258 -0.0072066382 -1.6158269e-21)
(-0.52818869 -0.007062899 -4.6226435e-21)
(-0.51776326 -0.006923444 4.1530535e-23)
(-0.50764368 -0.0067880659 2.0356164e-23)
(-0.49781805 -0.0066566444 -2.9042434e-21)
(-0.48827504 -0.0065289811 1.5023254e-21)
(-0.47900388 -0.0064049873 2.6999964e-21)
(-0.46999432 -0.0062844825 -1.4091219e-21)
(-0.46123661 -0.0061673511 0)
(-0.45272145 -0.0060534663 -3.4840551e-23)
(-0.44443993 -0.0059427089 0)
(-0.4363836 -0.0058349652 -3.3582974e-23)
(-0.42854437 -0.0057301268 -3.297958e-23)
(-0.4209145 -0.0056280901 2.390169e-21)
(-0.4134866 -0.0055287559 -3.2486627e-23)
(-0.4062536 -0.0054320295 -2.3694448e-21)
(-0.39920875 -0.0053378204 -3.0721672e-23)
(-0.39234558 -0.005246042 2.2279402e-21)
(-0.38565789 -0.0051566112 -3.0299928e-23)
(-0.37913974 -0.0050694485 -2.1517294e-21)
(-0.37278547 -0.004984478 -2.868802e-23)
(-0.36658961 -0.0049016266 -2.8211171e-23)
(-0.36054695 -0.0048208245 -2.7746117e-23)
(-0.35465247 -0.0047420045 -2.729247e-23)
(-0.34890138 -0.0046651023 -2.6849862e-23)
(-0.34328905 -0.0045900562 -2.6417936e-23)
(-0.33781106 -0.0045168069 -2.5996352e-23)
(-0.33246316 -0.0044452974 -2.5584781e-23)
(-0.32724126 -0.0043754731 -2.518291e-23)
(-0.32214143 -0.0043072815 -2.4790435e-23)
(-0.3171599 -0.0042406719 -2.4407065e-23)
(-0.31229303 -0.0041755958 2.5038564e-23)
(-0.30753733 -0.0041120065 -2.3666535e-23)
(-0.30288945 -0.0040498591 -2.3308847e-23)
(-0.29834614 -0.0039891102 1.6941634e-21)
(-0.2939043 -0.0039297181 -2.3090781e-23)
(-0.28956092 -0.0038716429 -1.6888427e-21)
(0 -0 -0)
(-0.0038716429 0.28956092 2.2749534e-23)
(-0 -0 -0)
(0.29378683 -0.011728754 1.6908816e-21)
(0.298226 -0.011905991 -3.8010172e-35)
(0.30276655 -0.012087276 -1.7425642e-21)
(0.30741159 -0.012272735 -3.612663e-21)
(0.31216436 -0.012462495 1.796653e-21)
(0.31702821 -0.012656692 3.7256763e-21)
(0.32200663 -0.012855465 4.1771686e-35)
(0.32710325 -0.013058958 -2.5740998e-35)
(0.33232183 -0.013267323 6.1744795e-35)
(0.33766631 -0.013480716 -1.138797e-35)
(0.34314076 -0.0136993 5.617353e-36)
(0.34874943 -0.013923246 4.6360349e-35)
(0.35449675 -0.014152731 -6.8371087e-35)
(0.36038732 -0.014387937 -7.6380367e-35)
(0.36642595 -0.014629058 9.2919339e-36)
(0.37261764 -0.014876294 -4.3789564e-21)
(0.37896761 -0.015129853 1.0052393e-34)
(0.38548129 -0.015389953 4.5301285e-21)
(0.39216437 -0.015656821 -5.8425574e-35)
(0.39902277 -0.015930695 -2.2965641e-21)
(0.40606267 -0.016211821 7.2884878e-35)
(0.41329054 -0.016500458 2.3786818e-21)
(0.42071313 -0.016796878 -5.6175027e-35)
(0.42833749 -0.017101362 -2.4652841e-21)
(0.43617102 -0.017414205 -2.5103698e-21)
(0.44422143 -0.017735719 2.5567037e-21)
(0.4524968 -0.018066226 5.7628036e-36)
(0.4610056 -0.018406066 -2.6533045e-21)
(0.46975669 -0.018755596 2.7036447e-21)
(0.47875937 -0.019115173 1.4873914e-21)
(0.48802337 -0.019485244 -2.8094981e-21)
(0.49755893 -0.019866141 -1.3670945e-21)
(0.50737684 -0.020258342 3.2203055e-21)
(0.51748835 -0.020662308 1.2849266e-25)
(0.5279054 -0.021078508 -3.2284896e-21)
(0.5386405 -0.02150746 -1.4906527e-21)
(0.54970694 -0.021949697 -1.5810297e-21)
(0.56111877 -0.02240581 1.5416781e-21)
(0.57289087 -0.022876419 -6.8387877e-23)
(0.58503917 -0.023362204 3.2911678e-21)
(0.59758064 -0.02386389 3.5075022e-21)
(0.61053347 -0.024382306 3.5677128e-22)
(0.62391737 -0.024918347 -1.7812623e-21)
(0.63775345 -0.025473002 -5.7138703e-21)
(0.65206473 -0.02604741 3.6362794e-21)
(0.66687607 -0.026642787 2.070019e-21)
(0.6822143 -0.027260636 -1.8757683e-21)
(0.69810823 -0.027902471 -5.7390675e-25)
(0.71458859 -0.028570045 -1.9439186e-21)
(0.73168765 -0.029265194 -2.3221507e-21)
(0.7494385 -0.029989855 8.1668715e-23)
(0.76787452 -0.030746044 2.1592036e-21)
(0.78702776 -0.031535608 -2.3749186e-21)
(0.80692796 -0.032360259 -4.7001654e-21)
(0.82760077 -0.033221427 2.5159748e-21)
(0.84906643 -0.034119964 4.9319977e-21)
(0.87133887 -0.035056289 -1.7264051e-22)
(0.89442587 -0.036030103 -1.3001014e-22)
(0.91833174 -0.037040488 -5.4464415e-21)
(0.94306319 -0.038087458 1.6266585e-21)
(0.9685914 -0.039231127 1.2385552e-20)
(0.99015423 -0.040281509 3.4052674e-21)
(-0.99015425 -0.040281533 4.1988297e-21)
(-0.96859145 -0.039231109 6.0761306e-21)
(-0.94306324 -0.038087457 5.6235199e-21)
(-0.9183318 -0.037040505 2.8447937e-21)
(-0.89442594 -0.036030049 -5.4477848e-21)
(-0.87133894 -0.035056298 -2.5820899e-21)
(-0.84906654 -0.034119948 -2.2761184e-21)
(-0.82760087 -0.033221417 -3.6993397e-22)
(-0.80692806 -0.032360283 2.1711911e-21)
(-0.78702785 -0.031535608 2.568472e-21)
(-0.76787459 -0.030746046 1.0864772e-24)
(-0.74943857 -0.02998987 2.3071023e-21)
(-0.73168768 -0.029265184 -1.4859016e-23)
(-0.71458864 -0.028570047 -4.2056274e-21)
(-0.69810827 -0.027902471 -3.9773428e-21)
(-0.68221431 -0.027260626 9.2224493e-23)
(-0.66687608 -0.026642807 3.9673706e-21)
(-0.65206476 -0.026047397 7.8320015e-23)
(-0.63775347 -0.025473007 -3.7712952e-22)
(-0.62391737 -0.024918347 7.4757185e-23)
(-0.61053347 -0.024382309 3.6495433e-21)
(-0.59758063 -0.023863887 3.573358e-22)
(-0.58503917 -0.023362204 -3.1567081e-21)
(-0.57289087 -0.022876419 2.0041315e-22)
(-0.56111877 -0.02240581 -1.822399e-21)
(-0.54970694 -0.021949697 -6.634562e-23)
(-0.5386405 -0.02150746 1.4209663e-21)
(-0.5279054 -0.021078508 3.2284893e-21)
(-0.51748835 -0.020662308 1.4324005e-21)
(-0.50737684 -0.020258342 -4.4411677e-21)
(-0.49755893 -0.019866141 -1.5464625e-21)
(-0.48802337 -0.019485244 -1.3463596e-21)
(-0.47875937 -0.019115173 -5.7296951e-23)
(-0.46975669 -0.018755596 2.7036447e-21)
(-0.4610056 -0.018406066 -2.6533045e-21)
(-0.4524968 -0.018066226 4.2889711e-36)
(-0.44422143 -0.017735719 -7.5557857e-36)
(-0.43617102 -0.017414205 -2.5103647e-21)
(-0.42833749 -0.017101362 -5.4474698e-35)
(-0.42071313 -0.016796878 2.4214023e-21)
(-0.41329054 -0.016500458 -1.1878895e-34)
(-0.40606267 -0.016211821 -2.337082e-21)
(-0.39902277 -0.015930695 -7.1775782e-35)
(-0.39216437 -0.015656821 2.2570907e-21)
(-0.38548129 -0.015389953 4.5301285e-21)
(-0.37896761 -0.015129853 -2.1811372e-21)
(-0.37261764 -0.014876294 -4.3789564e-21)
(-0.36642595 -0.014629058 6.469091e-36)
(-0.36038732 -0.014387937 6.2367364e-35)
(-0.35449675 -0.014152731 -3.7682478e-35)
(-0.34874943 -0.013923246 6.80748e-35)
(-0.34314076 -0.0136993 7.9303807e-36)
(-0.33766631 -0.013480716 5.2040566e-35)
(-0.33232183 -0.013267323 -3.0728739e-35)
(-0.32710325 -0.013058958 -5.2497732e-36)
(-0.32200663 -0.012855465 4.0221281e-35)
(-0.31702821 -0.012656692 3.7256763e-21)
(-0.31216436 -0.012462495 4.5297086e-35)
(-0.30741159 -0.012272735 -3.612663e-21)
(-0.30276655 -0.012087276 7.9693037e-35)
(-0.298226 -0.011905991 1.7164312e-21)
(-0.29378683 -0.011728754 4.0755577e-35)
(0 -0 0)
(0.0038716429 0.28956092 3.9537747e-35)
(-0.0039297181 0.2939043 -1.6689403e-21)
(-0.011728754 0.29378683 -1.6908816e-21)
(-0 -0 0)
(0.29798762 -0.019600636 1.128109e-22)
(0.3025227 -0.019899017 -1.6266325e-21)
(0.30716211 -0.020204266 1.1628507e-22)
(0.31190907 -0.020516596 1.6721578e-21)
(0.31676693 -0.020836227 1.1992231e-22)
(0.32173916 -0.02116339 1.2180528e-22)
(0.3268294 -0.021498321 1.2373297e-22)
(0.33204141 -0.021841271 1.2570681e-22)
(0.33737909 -0.022192497 1.2772828e-22)
(0.34284652 -0.022552267 1.2979892e-22)
(0.34844795 -0.022920862 1.3192036e-22)
(0.35418778 -0.023298572 1.3409426e-22)
(0.36007062 -0.023685702 1.3632238e-22)
(0.36610125 -0.024082567 1.3860652e-22)
(0.37228467 -0.024489497 1.409486e-22)
(0.37862608 -0.024906836 -1.4935147e-22)
(0.38513092 -0.025334941 1.4581453e-22)
(0.39180484 -0.025774189 1.483426e-22)
(0.39865375 -0.026224968 -2.1435032e-21)
(0.40568384 -0.026687688 1.5360022e-22)
(0.41290154 -0.027162773 2.5327775e-21)
(0.4203136 -0.027650671 1.5914264e-22)
(0.42792704 -0.028151847 -2.3008946e-21)
(0.43574924 -0.028666788 1.6498586e-22)
(0.44378791 -0.029196005 2.5542086e-21)
(0.4520511 -0.029740031 1.7116789e-22)
(0.46054724 -0.030299427 0)
(0.46928521 -0.030874772 -4.1079295e-21)
(0.47827423 -0.031466711 -2.6867941e-21)
(0.48752404 -0.032075857 4.0539265e-21)
(0.4970449 -0.032702908 2.9725462e-21)
(0.50684744 -0.033348555 -6.9827217e-23)
(0.51694299 -0.034013592 2.0397196e-22)
(0.52734339 -0.034698793 -3.2426053e-21)
(0.53806116 -0.035405001 -1.0644598e-22)
(0.54910949 -0.036133116 3.0753134e-21)
(0.56050235 -0.036884129 -1.0170347e-22)
(0.57225462 -0.037659011 -1.4692143e-22)
(0.58438211 -0.038458936 1.1537446e-22)
(0.59690164 -0.03928511 2.2630687e-22)
(0.60983138 -0.040138858 3.6100542e-21)
(0.62319082 -0.041021681 2.5022171e-22)
(0.63700102 -0.041935243 -1.7557716e-21)
(0.65128477 -0.04288132 -1.5311076e-21)
(0.66606687 -0.043862071 -1.7365593e-21)
(0.68137403 -0.044879861 2.1227227e-21)
(0.69723519 -0.04593723 -4.2425198e-21)
(0.71368132 -0.04703703 2.9608597e-22)
(0.73074511 -0.04818236 2.3151145e-21)
(0.74846078 -0.04937647 -3.3414012e-22)
(0.76686307 -0.050622726 4.627776e-21)
(0.78598665 -0.051924476 1.9003261e-23)
(0.80586481 -0.053284894 -4.6294613e-22)
(0.82652857 -0.054706957 -3.0638992e-22)
(0.84800579 -0.056193383 -2.4570055e-21)
(0.87032105 -0.057747002 4.9442277e-21)
(0.89349619 -0.059371034 -5.287977e-21)
(0.91754994 -0.061071079 -5.3096031e-21)
(0.94248335 -0.062861559 5.3441848e-21)
(0.96801477 -0.064881953 6.7540266e-21)
(0.98885865 -0.067258316 4.6052669e-21)
(-0.98885864 -0.067258315 4.5385764e-21)
(-0.96801478 -0.064881967 8.0776993e-21)
(-0.94248341 -0.062861547 1.7401543e-21)
(-0.91754997 -0.061071058 2.6573523e-21)
(-0.89349624 -0.059370988 -4.2026673e-22)
(-0.87032114 -0.057746957 -2.532009e-21)
(-0.84800582 -0.056193397 -4.3665591e-21)
(-0.82652863 -0.054706959 1.5436363e-22)
(-0.80586489 -0.05328489 6.3479004e-21)
(-0.78598669 -0.051924494 2.9141364e-23)
(-0.76686312 -0.050622732 -2.2138773e-21)
(-0.74846081 -0.049376478 1.0417112e-22)
(-0.73074514 -0.048182394 -4.2116219e-22)
(-0.71368135 -0.047037045 0)
(-0.69723524 -0.045937229 2.0696385e-21)
(-0.68137406 -0.04487986 1.1870453e-22)
(-0.66606688 -0.043862085 1.7019034e-21)
(-0.65128478 -0.042881324 -1.7039068e-21)
(-0.63700103 -0.041935234 -1.7386027e-21)
(-0.62319082 -0.041021682 1.7187026e-21)
(-0.60983138 -0.040138844 2.4378044e-22)
(-0.59690164 -0.039285124 -3.3584114e-22)
(-0.58438211 -0.038458935 -1.7587415e-21)
(-0.57225462 -0.037659011 1.3779979e-22)
(-0.56050235 -0.036884129 3.4617369e-21)
(-0.54910949 -0.036133116 -1.3273336e-22)
(-0.53806116 -0.035405001 -1.7186246e-21)
(-0.52734339 -0.034698793 -2.9079331e-21)
(-0.51694299 -0.034013592 -1.6515894e-21)
(-0.50684744 -0.033348555 1.7194216e-21)
(-0.4970449 -0.032702908 2.0206393e-22)
(-0.48752404 -0.032075857 1.3441942e-21)
(-0.47827423 -0.031466711 -2.8467475e-23)
(-0.46928521 -0.030874772 0)
(-0.46054724 -0.030299427 0)
(-0.4520511 -0.029740031 1.7116789e-22)
(-0.44378791 -0.029196005 0)
(-0.43574924 -0.028666788 1.6499087e-22)
(-0.42792704 -0.028151847 1.6202714e-22)
(-0.4203136 -0.027650671 2.5782455e-21)
(-0.41290154 -0.027162773 1.5633456e-22)
(-0.40568384 -0.026687688 -2.1813015e-21)
(-0.39865375 -0.026224968 1.5093705e-22)
(-0.39180484 -0.025774189 2.4033641e-21)
(-0.38513092 -0.025334941 1.4581453e-22)
(-0.37862608 -0.024906836 -2.328523e-21)
(-0.37228467 -0.024489497 1.409486e-22)
(-0.36610125 -0.024082567 1.3860652e-22)
(-0.36007062 -0.023685702 1.3632238e-22)
(-0.35418778 -0.023298572 1.3409426e-22)
(-0.34844795 -0.022920862 1.3192036e-22)
(-0.34284652 -0.022552267 1.2979892e-22)
(-0.33737909 -0.022192497 1.2772828e-22)
(-0.33204141 -0.021841271 1.2570681e-22)
(-0.3268294 -0.021498321 1.2373297e-22)
(-0.32173916 -0.02116339 1.2180528e-22)
(-0.31676693 -0.020836227 1.1992231e-22)
(-0.31190907 -0.020516596 -1.2302582e-22)
(-0.30716211 -0.020204266 1.1628507e-22)
(-0.3025227 -0.019899017 1.1452822e-22)
(-0.29798762 -0.019600636 1.8278701e-21)
(0 -0 0)
(0.011728754 0.29378683 -1.6233771e-21)
(0.0039297181 0.2939043 -1.7269635e-21)
(-0.0039891102 0.29834614 2.2959209e-23)
(-0.011905991 0.298226 -1.3230478e-34)
(-0.019600636 0.29798762 -1.128109e-22)
(-0 -0 -0)
(0.30216292 -0.027344628 -1.73909e-21)
(0.30679401 -0.027764 8.292387e-35)
(0.3115324 -0.028193101 1.7930158e-21)
(0.31638142 -0.028632234 0)
(0.32134453 -0.029081715 0)
(0.32642536 -0.029541872 0)
(0.33162765 -0.030013047 0)
(0.33695531 -0.030495594 0)
(0.34241239 -0.030989884 0)
(0.34800312 -0.031496301 0)
(0.35373191 -0.032015246 0)
(0.35960333 -0.032547136 0)
(0.36562216 -0.033092407 0)
(0.37179337 -0.033651512 0)
(0.37812216 -0.034224925 0)
(0.38461394 -0.034813139 0)
(0.39127434 -0.03541667 0)
(0.39810927 -0.036036055 -2.2913064e-21)
(0.40512486 -0.036671858 1.0073988e-34)
(0.41232756 -0.037324665 2.3731394e-21)
(0.41972405 -0.03799509 0)
(0.42732138 -0.038683777 -2.4594359e-21)
(0.43512686 -0.039391397 -5.0087126e-27)
(0.44314819 -0.04011866 2.430242e-21)
(0.45139338 -0.040866286 0)
(0.45987085 -0.041635073 0)
(0.46858941 -0.042425812 0)
(0.47755827 -0.043239376 2.370024e-21)
(0.48678715 -0.044076629 -2.6428139e-22)
(0.49628621 -0.044938521 2.4772787e-22)
(0.50606611 -0.045826094 1.3746968e-22)
(0.51613804 -0.046740313 1.241322e-22)
(0.52651388 -0.047682336 1.5784907e-21)
(0.537206 -0.048653327 -2.0365263e-21)
(0.54822755 -0.049654532 -1.494274e-21)
(0.55959245 -0.050687311 -1.5302971e-21)
(0.57131542 -0.051753046 -3.590128e-21)
(0.58341216 -0.052853341 -1.4196426e-22)
(0.59589938 -0.053989891 3.258769e-21)
(0.60879505 -0.055164485 -3.177555e-22)
(0.62211849 -0.056379285 3.3846324e-22)
(0.63589057 -0.057636548 -5.5349579e-21)
(0.65013388 -0.058938838 3.9165638e-24)
(0.66487288 -0.060289118 2.0128069e-21)
(0.68013433 -0.061690546 3.853306e-21)
(0.6959471 -0.063146813 1.7348453e-21)
(0.7123423 -0.064661907 -6.9242745e-21)
(0.72935322 -0.066240133 2.3565456e-21)
(0.74701487 -0.067886235 -5.9098547e-22)
(0.76536379 -0.069605134 -1.9100843e-22)
(0.78443708 -0.071401883 7.0381844e-21)
(0.80427172 -0.073281791 -5.0758209e-24)
(0.82490391 -0.075250418 -4.9679022e-21)
(0.84636839 -0.077314203 2.2288618e-21)
(0.86869863 -0.079481647 2.1231834e-22)
(0.89192625 -0.081766094 -2.1672897e-21)
(0.91607349 -0.084192934 -2.6543206e-23)
(0.94109301 -0.086820939 -2.755386e-21)
(0.96613728 -0.089979206 -4.2351735e-21)
(0.98642202 -0.093969249 -1.1405205e-21)
(-0.98642202 -0.093969249 -4.7351525e-21)
(-0.96613727 -0.089979209 -3.947498e-21)
(-0.94109304 -0.086820931 7.9774946e-21)
(-0.91607351 -0.08419295 2.4262762e-21)
(-0.89192628 -0.081766097 -4.7533731e-21)
(-0.86869869 -0.079481614 1.9628956e-22)
(-0.84636845 -0.07731418 -4.5270852e-24)
(-0.82490394 -0.075250429 -6.3148705e-21)
(-0.80427179 -0.073281761 -2.3174493e-21)
(-0.78443713 -0.071401867 4.1736575e-21)
(-0.76536383 -0.069605142 6.5221194e-21)
(-0.74701493 -0.067886268 -1.268168e-21)
(-0.72935322 -0.066240174 -3.891354e-21)
(-0.71234231 -0.064661932 1.9244212e-21)
(-0.69594712 -0.063146821 -2.0657129e-21)
(-0.68013435 -0.06169055 -2.3886017e-21)
(-0.66487289 -0.060289089 5.7829567e-21)
(-0.65013388 -0.058938858 1.5880771e-21)
(-0.63589057 -0.057636544 -3.4659878e-21)
(-0.62211849 -0.056379285 3.5729098e-21)
(-0.60879506 -0.055164491 -1.9966058e-21)
(-0.59589939 -0.053989885 -3.5964948e-21)
(-0.58341216 -0.052853342 1.7594711e-21)
(-0.57131542 -0.051753046 1.7121182e-21)
(-0.55959245 -0.050687311 -1.8001834e-21)
(-0.54822755 -0.049654532 -3.4350447e-21)
(-0.537206 -0.048653327 1.767953e-21)
(-0.52651388 -0.047682336 3.0138181e-21)
(-0.51613804 -0.046740313 4.9112096e-21)
(-0.50606611 -0.045826094 -1.5018188e-21)
(-0.49628621 -0.044938521 -4.3289551e-21)
(-0.48678715 -0.044076629 -1.3421877e-21)
(-0.47755827 -0.043239376 8.4611246e-27)
(-0.46858941 -0.042425812 1.4049098e-21)
(-0.45987085 -0.041635073 0)
(-0.45139338 -0.040866286 0)
(-0.44314819 -0.04011866 -1.2028471e-22)
(-0.43512686 -0.039391397 0)
(-0.42732138 -0.038683777 0)
(-0.41972405 -0.03799509 2.4157097e-21)
(-0.41232756 -0.037324665 3.2043713e-38)
(-0.40512486 -0.036671858 -2.3316845e-21)
(-0.39810927 -0.036036055 0)
(-0.39127434 -0.03541667 2.2519682e-21)
(-0.38461394 -0.034813139 1.0095681e-34)
(-0.37812216 -0.034224925 -2.1762712e-21)
(-0.37179337 -0.033651512 0)
(-0.36562216 -0.033092407 0)
(-0.35960333 -0.032547136 0)
(-0.35373191 -0.032015246 0)
(-0.34800312 -0.031496301 0)
(-0.34241239 -0.030989884 0)
(-0.33695531 -0.030495594 0)
(-0.33162765 -0.030013047 0)
(-0.32642536 -0.029541872 0)
(-0.32134453 -0.029081715 0)
(-0.31638142 -0.028632234 0)
(-0.3115324 -0.028193101 0)
(-0.30679401 -0.027764 0)
(-0.30216292 -0.027344628 0)
(0 -0 -0)
(0.019600636 0.29798762 -9.8389505e-35)
(0.011905991 0.298226 6.8524589e-23)
(0.0039891102 0.29834614 0)
(-0.0040498591 0.30288945 1.7665803e-21)
(-0.012087276 0.30276655 1.7425642e-21)
(-0.019899017 0.3025227 1.6266325e-21)
(-0.027344628 0.30216292 1.73909e-21)
(-0 -0 -0)
(0.30631364 -0.034896603 -2.008464e-22)
(0.31104083 -0.035435857 2.0026743e-21)
(0.31587831 -0.035987723 -2.071263e-22)
(0.32082953 -0.036552599 -2.1037743e-22)
(0.32589807 -0.037130898 -2.1370582e-22)
(0.33108768 -0.03772305 -2.1711393e-22)
(0.33640225 -0.038329503 -2.2060435e-22)
(0.34184581 -0.038950722 -2.2417976e-22)
(0.34742259 -0.039587191 -2.2784294e-22)
(0.35313695 -0.040239417 -2.3159681e-22)
(0.35899346 -0.040907925 -2.3544438e-22)
(0.36499687 -0.041593263 -2.3938883e-22)
(0.37115215 -0.042296006 -2.4343344e-22)
(0.37746446 -0.043016748 2.5794584e-22)
(0.38393917 -0.043756113 -2.5183705e-22)
(0.39058192 -0.044514752 -2.5620338e-22)
(0.39739857 -0.045293344 -2.5479006e-21)
(0.40439523 -0.0460926 -2.6528463e-22)
(0.41157831 -0.046913261 2.0988192e-21)
(0.41895448 -0.047756105 -2.7485889e-22)
(0.42653074 -0.048621944 -2.7347276e-21)
(0.43431436 -0.049511629 1.0171948e-21)
(0.44231302 -0.050426046 2.2554941e-21)
(0.45053469 -0.051366153 -1.3507916e-21)
(0.45898772 -0.052332896 0)
(0.46768091 -0.053327328 0)
(0.4766234 -0.054350533 -1.3095029e-23)
(0.48582488 -0.055403631 -2.4772032e-21)
(0.49529541 -0.056487832 -1.4849758e-21)
(0.50504561 -0.057604387 3.0516201e-21)
(0.51508669 -0.058754648 1.3681021e-21)
(0.52543029 -0.059940018 1.934515e-21)
(0.5360888 -0.061162008 -1.6067212e-21)
(0.54707526 -0.062422212 -1.6401681e-21)
(0.55840347 -0.063722328 3.4813657e-21)
(0.57008804 -0.06506424 1.6207741e-23)
(0.58214445 -0.066449924 6.6400452e-22)
(0.59458932 -0.067881548 3.6206213e-21)
(0.60744031 -0.06936149 -3.6343541e-21)
(0.62071651 -0.070892443 -3.3524019e-21)
(0.63443855 -0.07247738 2.3094447e-21)
(0.64864007 -0.0450289 -2.457052e-21)
(0.66332693 -0.046769295 -1.5417963e-21)
(0.67853378 -0.048671076 3.7465143e-21)
(0.6942894 -0.05076319 4.3955301e-21)
(0.71062493 -0.053082695 -4.026926e-21)
(0.72757364 -0.055677702 1.094691e-22)
(0.7451707 -0.058612846 1.7002274e-21)
(0.76345289 -0.061977069 -4.6480119e-21)
(0.78245765 -0.065896631 2.6311135e-21)
(0.80222249 -0.070558091 4.8481124e-21)
(0.82278433 -0.076249633 9.8397738e-24)
(0.84417887 -0.08344081 -7.0593989e-21)
(0.86641678 -0.10019335 -1.9414901e-21)
(0.88961196 -0.10316153 -4.8844053e-21)
(0.91371469 -0.1063709 -5.9001519e-22)
(0.9385427 -0.10996235 5.0980688e-21)
(0.96253122 -0.11460462 8.7074741e-22)
(0.98268061 -0.12024637 2.5495303e-21)
(-0.98268061 -0.12024637 2.09879e-22)
(-0.96253122 -0.11460462 8.2373422e-22)
(-0.93854274 -0.10996237 -2.2598952e-23)
(-0.91371474 -0.1063709 4.4353026e-21)
(-0.88961194 -0.10316154 -4.1404522e-22)
(-0.86641679 -0.10019336 -4.9568833e-21)
(-0.8441789 -0.08344078 4.5811114e-21)
(-0.82278436 -0.076249621 -2.3669415e-23)
(-0.80222254 -0.070558069 -4.2065422e-21)
(-0.78245769 -0.065896612 1.6886893e-22)
(-0.76345294 -0.061977082 6.5293096e-21)
(-0.74517075 -0.058612863 1.6444269e-21)
(-0.72757364 -0.055677712 -6.0692521e-21)
(-0.71062493 -0.053082705 -2.3934631e-21)
(-0.69428941 -0.050763214 -2.0606335e-21)
(-0.67853379 -0.048671074 1.5213477e-22)
(-0.66332694 -0.046769243 2.1096028e-21)
(-0.64864008 -0.045028924 -2.5965495e-22)
(-0.63443855 -0.072477374 2.314197e-21)
(-0.62071651 -0.070892443 -3.9291327e-21)
(-0.60744031 -0.069361494 -2.3587617e-21)
(-0.59458931 -0.067881544 3.7454588e-21)
(-0.58214445 -0.066449924 1.4015111e-22)
(-0.57008804 -0.06506424 -7.3491452e-23)
(-0.55840347 -0.063722328 1.3069003e-21)
(-0.54707526 -0.062422212 1.335824e-21)
(-0.5360888 -0.061162008 -1.4236063e-21)
(-0.52543029 -0.059940018 -1.5895144e-21)
(-0.51508669 -0.058754648 1.5442688e-21)
(-0.50504561 -0.057604387 -5.5532912e-22)
(-0.49529541 -0.056487832 -1.3519946e-21)
(-0.48582488 -0.055403631 4.9061944e-23)
(-0.4766234 -0.054350533 4.812091e-23)
(-0.46768091 -0.053327328 0)
(-0.45898772 -0.052332896 0)
(-0.45053469 -0.051366153 -1.3507916e-21)
(-0.44231302 -0.050426046 1.0993558e-27)
(-0.43431436 -0.049511629 1.0171972e-21)
(-0.42653074 -0.048621944 -2.798422e-22)
(-0.41895448 -0.047756105 2.1364216e-21)
(-0.41157831 -0.046913261 -2.7000793e-22)
(-0.40439523 -0.0460926 -2.5927698e-21)
(-0.39739857 -0.045293344 -2.6068454e-22)
(-0.39058192 -0.044514752 1.9917796e-21)
(-0.38393917 -0.043756113 -2.5183705e-22)
(-0.37746446 -0.043016748 -1.91454e-21)
(-0.37115215 -0.042296006 -2.4343344e-22)
(-0.36499687 -0.041593263 -2.3938883e-22)
(-0.35899346 -0.040907925 -2.3544438e-22)
(-0.35313695 -0.040239417 -2.3159681e-22)
(-0.34742259 -0.039587191 -2.2784294e-22)
(-0.34184581 -0.038950722 -2.2417976e-22)
(-0.33640225 -0.038329503 -2.2060435e-22)
(-0.33108768 -0.03772305 -2.1711393e-22)
(-0.32589807 -0.037130898 -2.1370582e-22)
(-0.32082953 -0.036552599 -2.1037743e-22)
(-0.31587831 -0.035987723 -2.071263e-22)
(-0.31104083 -0.035435857 2.1248775e-22)
(-0.30631364 -0.034896603 -2.008464e-22)
(0 -0 -0)
(0.027344628 0.30216292 1.5817088e-21)
(0.019899017 0.3025227 1.7411607e-21)
(0.012087276 0.30276655 1.8121321e-21)
(0.0040498591 0.30288945 1.7797596e-21)
(-0.0041120065 0.30753733 2.4161896e-23)
(-0.012272735 0.30741159 3.612663e-21)
(-0.020204266 0.30716211 -1.1628507e-22)
(-0.027764 0.30679401 -8.2593226e-35)
(-0.034896603 0.30631364 2.008464e-22)
(-0 -0 -0)
(0.31044128 -0.042267431 1.7867359e-21)
(0.31526467 -0.04292566 3.7049514e-21)
(0.32020136 -0.043599417 3.2537625e-35)
(0.32525491 -0.044289197 3.2185094e-36)
(0.33042905 -0.044995516 1.9800673e-35)
(0.33572764 -0.045718907 4.7365255e-35)
(0.3411547 -0.046459929 8.2866603e-35)
(0.34671443 -0.047219162 1.2113598e-35)
(0.35241118 -0.047997211 6.0186048e-35)
(0.35824948 -0.048794707 7.2408586e-35)
(0.36423408 -0.049612308 2.6714376e-35)
(0.37036989 -0.050450699 -4.3525411e-21)
(0.37666206 -0.051310597 9.8184912e-35)
(0.38311593 -0.052192749 4.5023311e-21)
(0.38973711 -0.053097937 3.1359182e-35)
(0.39653142 -0.054026975 -2.2822252e-21)
(0.40350495 -0.054980719 -6.4612661e-22)
(0.41066405 -0.05596006 2.3635651e-21)
(0.41801537 -0.056965933 2.321058e-35)
(0.42556585 -0.057999317 -2.449332e-21)
(0.43332275 -0.059061236 -6.9408034e-22)
(0.44129366 -0.060152762 1.8035453e-22)
(0.44948653 -0.061275041 -2.5870068e-21)
(0.45790968 -0.062429238 -1.8717646e-22)
(0.46657178 -0.063616591 -2.6905925e-22)
(0.47548195 -0.064838465 -1.5620966e-23)
(0.48464984 -0.066096174 -1.1676786e-22)
(0.49408543 -0.067391178 1.2124767e-21)
(0.50379925 -0.068725036 1.304371e-21)
(0.51380236 -0.070099383 -1.8912271e-21)
(0.52410643 -0.071515948 -1.6044991e-25)
(0.53472368 -0.072976538 1.6029122e-21)
(0.54566701 -0.074483111 -2.3055523e-21)
(0.55695008 -0.076037763 -1.6510732e-21)
(0.56858733 -0.077642815 3.6391216e-21)
(0.58059642 -0.045499088 -1.8734044e-21)
(0.59299027 -0.046899873 -3.2833267e-21)
(0.60578792 -0.048392874 -9.0360578e-24)
(0.61900833 -0.049989625 -3.5621482e-21)
(0.6616734 -0.051702614 4.1006479e-21)
(0.67578855 -0.053544868 3.1412407e-24)
(0.66124517 -0.055552887 -2.1478568e-21)
(0.67616269 -0.057734531 3.8500965e-21)
(0.69156959 -0.060126692 -3.7328369e-21)
(0.70747922 -0.062769577 -3.8158685e-21)
(0.72389959 -0.065714827 1.0448813e-20)
(0.74082874 -0.069031471 4.621042e-21)
(0.75824614 -0.072813888 -1.1073048e-20)
(0.77609821 -0.077195105 -4.6840039e-22)
(0.79427053 -0.08236972 4.8362091e-21)
(0.81253263 -0.088635863 7.5316527e-22)
(0.82341764 -0.096431732 -1.7889515e-21)
(0.84992866 -0.10672789 -2.9234988e-22)
(0.88644747 -0.1237144 7.3491017e-21)
(0.91027871 -0.12777169 -1.3202944e-21)
(0.93445014 -0.13245794 -7.3588918e-21)
(0.95697807 -0.13891579 3.1389895e-21)
(0.97758124 -0.14595257 4.6589261e-21)
(-0.97758124 -0.14595257 3.5205772e-21)
(-0.95697807 -0.13891579 -6.4748013e-22)
(-0.93445016 -0.13245795 -7.744735e-21)
(-0.91027872 -0.12777165 2.4293967e-21)
(-0.88644748 -0.12371437 1.4527303e-21)
(-0.84992867 -0.10672793 -4.8168606e-21)
(-0.82341765 -0.096431737 -5.2279517e-22)
(-0.81253265 -0.088635831 1.8069198e-21)
(-0.79427057 -0.082369739 -2.9713381e-21)
(-0.77609822 -0.077195096 2.4470477e-22)
(-0.75824613 -0.072813939 2.5733854e-21)
(-0.74082874 -0.069031433 -9.9929449e-22)
(-0.72389964 -0.065714836 -4.0949623e-21)
(-0.70747922 -0.062769548 1.7396003e-23)
(-0.69156961 -0.060126726 3.9134533e-21)
(-0.67616273 -0.057734495 -1.5967989e-22)
(-0.66124519 -0.055552893 0)
(-0.67578856 -0.05354484 3.2426714e-21)
(-0.66167341 -0.051702599 -1.8407824e-21)
(-0.61900833 -0.049989624 -3.696103e-21)
(-0.60578792 -0.048392874 2.2467526e-21)
(-0.59299027 -0.046899873 2.2630494e-23)
(-0.58059642 -0.045499088 -1.7506152e-21)
(-0.56858733 -0.077642836 -1.5665941e-21)
(-0.55695008 -0.076037791 -1.7818741e-21)
(-0.54566701 -0.074483105 1.0755804e-21)
(-0.53472368 -0.072976538 2.7291088e-21)
(-0.52410643 -0.071515948 1.5885096e-21)
(-0.51380236 -0.070099383 -1.2929099e-21)
(-0.50379925 -0.068725036 -1.7164203e-21)
(-0.49408543 -0.067391178 2.8273807e-21)
(-0.48464984 -0.066096174 -1.5934022e-23)
(-0.47548195 -0.064838465 -1.4255675e-21)
(-0.46657178 -0.063616591 0)
(-0.45790968 -0.062429238 0)
(-0.44948653 -0.061275041 0)
(-0.44129366 -0.060152762 -2.7202027e-21)
(-0.43332275 -0.059061236 -2.4939767e-21)
(-0.42556585 -0.057999317 3.2823291e-35)